      -----------------------------------------------------------      
     |                   =====================                   |     
     |                           x T B                           |     
     |                   =====================                   |     
     |                         S. Grimme                         |     
     |          Mulliken Center for Theoretical Chemistry        |     
     |                    University of Bonn                     |     
     |                 Version 6.0.1 (SAW181210)                 |     
      -----------------------------------------------------------      

   This program is distributed in the hope that it will be useful,
   but WITHOUT ANY WARRANTY; without even the implied warranty of
   MERCHANTABILITY or FITNESS FOR A PARTICULAR PURPOSE.
   
   FOR NON-COMMERCIAL, ACADEMIA USE ONLY.
   
   Cite this work as:
   S. Grimme, C. Bannwarth, P. Shushkov, J. Comput. Theory Chem., 2017,
   13, 1989-2009.
   C. Bannwarth, S. Ehlert and S. Grimme., ChemRxiv, 2018, preprint.
   http://doi.org/10.26434/chemrxiv.7246238.v1
   
   for sTDA-xTB:
   S. Grimme and C. Bannwarth, J. Chem. Phys., 2016, 145, 054103.
   
   in the mass-spec context:
   V. Asgeirsson, C. Bauer and S. Grimme, Chem. Sci., 2017, 8, 4879.
   
   if GBSA is used:
   P. Shushkov, F. März and S. Grimme, unpublished.
   
   for ANC optimizer:
   S. Grimme, unpublished.
   Rational Function algorithm used in ANCopt:
   F. Eckert, P. Pulay, H.-J. Werner, J. Comput. Chem., 1997, 18, 1473.
   
   with help from (in alphabetical order)
   C. Bannwarth, F. Bohle, G. Brandenburg, E. Caldeweyher, M. Checinski,
   S. Dohm, S. Ehlert, S. Ehrlich, F. März, H. Neugebauer, J. Pisarek,
   P. Pracht, P. Shushkov, and S. Spicher.
   
 * started run on 2019/02/16 at 08:10:28.801     
========================================================================
 # omp threads = 12
========================================================================
number of atoms            : 506
number of electrons        : 1364
charge                     : -2
spin                       : .0
first test random number   : .6879

########################################################################
# WARNING! Please study the warnings concerning your input carefully
#  - Process number higher than OMP_NUM_THREADS, I hope you know what you are doing.
########################################################################

           ------------------------------------------------- 
          |                 G F N 2 - x T B                 |
          | Geometry, Frequencies, Noncovalent interactions |
          |            JCTC 2018 parametrisation            |
           ------------------------------------------------- 
 
      method parameters     
 k(s)        :  1.8500
 k(p)        :  2.2300
 k(d)        :  2.2300
 k(f)        :  2.0000
 kEN (H0ij)  : -2.0000
 D4 a1       :  0.5200
 D4 a2       :  5.0000
 D4 s6       :  1.0000
 D4 s8       :  2.7000
 D4 s9       :  5.0000
 alphaj      :  2.0000

 Solvent             : h2o
 Using internal parameter file: .param_gbsa2_h2o
 Gsolv ref. state (COSMO-RS): gsolv [1 M gas/solution]
 temperature (mdtemp)       :    298.150000000000     
 dielectric constant        :    80.2000000000000     
 rho                        :    1.00000000000000     
 mass                       :    18.0000000000000     
 surface tension            :    15.5689454083859     
 probe radius               :   0.975313790000000     
 vdW radii scaling          :    1.00000000000000     
 Gshift (Eh)                :   1.857443126794793E-003
 c1                         :    1.55243817000000     
 soset                      :   0.130326360000000     
 HB correction              :  T

            Z     q(EN)     CN     RAES       Cart. coordinates
     1  N   5.0   -0.22    3.19    1.95    10.33331    32.35433     9.71054
     2  C   4.0    0.02    4.28    4.16     8.30012    30.42585     9.76601
     3  C   4.0    0.14    3.46    3.10     6.95905    30.31244     7.18613
     4  O   6.0   -0.32    1.27    1.80     6.37320    28.25622     6.25650
     5  C   4.0   -0.04    4.23    4.07     6.25715    31.18437    11.75616
     6  C   4.0   -0.03    4.19    3.99     4.58062    28.91226    12.26478
     7  C   4.0    0.24    3.08    3.02     2.36604    29.15475    14.16637
     8  O   6.0   -0.30    1.17    1.80     2.17158    31.13793    15.38418
     9  O   6.0   -0.30    1.16    1.80     0.90907    27.26850    14.31742
    10  H   1.0    0.07    1.02    1.43    10.31962    33.72407    11.05083
    11  H   1.0    0.05    1.04    1.43     9.10131    28.57288    10.18982
    12  H   1.0    0.05    1.02    1.43     7.18119    31.79546    13.49311
    13  H   1.0    0.04    1.03    1.43     5.14346    32.72481    10.99711
    14  H   1.0    0.05    1.03    1.43     3.73374    28.24671    10.49888
    15  H   1.0    0.05    1.03    1.43     5.73248    27.34925    12.98410
    16  N   5.0   -0.15    3.52    2.09     6.42453    32.52178     6.10435
    17  C   4.0    0.03    4.44    4.45     5.27002    32.59561     3.68957
    18  C   4.0    0.15    3.48    3.11     6.95975    31.28407     1.73581
    19  O   6.0   -0.32    1.26    1.80     6.06152    29.87039     0.11482
    20  C   4.0   -0.06    4.35    4.30     4.86021    35.37007     2.85807
    21  C   4.0   -0.03    4.20    4.00     2.72108    36.63658     4.38049
    22  C   4.0   -0.09    4.18    3.96     2.56288    39.35721     3.58762
    23  C   4.0   -0.08    4.15    3.91     0.11585    35.60461     3.80455
    24  H   1.0    0.07    1.07    1.44     6.82542    34.15568     7.01845
    25  H   1.0    0.05    1.05    1.44     3.47897    31.55286     3.71230
    26  H   1.0    0.03    1.03    1.43     6.63021    36.38082     3.14345
    27  H   1.0    0.04    1.03    1.43     4.37585    35.37549     0.85554
    28  H   1.0    0.03    1.06    1.44     3.09418    36.46927     6.39266
    29  H   1.0    0.03    1.00    1.43     1.11346    40.34007     4.66551
    30  H   1.0    0.03    1.00    1.43     4.34249    40.34597     3.91537
    31  H   1.0    0.03    1.00    1.43     2.10820    39.50808     1.58875
    32  H   1.0    0.03    1.01    1.43    -1.26720    36.62870     4.92743
    33  H   1.0    0.03    1.00    1.43    -0.35588    35.82779     1.82057
    34  H   1.0    0.03    1.00    1.43    -0.08076    33.61113     4.28097
    35  N   5.0   -0.15    3.49    2.07     9.40011    31.84216     1.78350
    36  C   4.0    0.03    4.44    4.45    11.10708    30.75534    -0.11416
    37  C   4.0    0.16    3.49    3.11    11.30735    27.93082     0.18699
    38  O   6.0   -0.30    1.27    1.80    11.24680    26.35054    -1.59760
    39  C   4.0   -0.04    4.39    4.37    13.72494    31.85766     0.15139
    40  C   4.0    0.16    3.25    3.04    15.60892    31.10892    -1.84831
    41  O   6.0   -0.28    1.20    1.80    17.61420    30.06141    -1.29887
    42  N   5.0   -0.19    3.27    1.97    14.83772    31.57269    -4.09288
    43  H   1.0    0.07    1.06    1.44    10.11366    33.08325     3.06118
    44  H   1.0    0.05    1.05    1.44    10.26695    31.10058    -1.97983
    45  H   1.0    0.04    1.03    1.43    13.54953    33.92176     0.14511
    46  H   1.0    0.05    1.03    1.43    14.48129    31.32009     1.99872
    47  H   1.0    0.11    1.11    1.45    15.72888    30.84485    -5.63871
    48  H   1.0    0.07    1.05    1.44    13.18127    32.48083    -4.34734
    49  N   5.0   -0.13    3.45    2.05    11.40474    27.05645     2.56604
    50  C   4.0    0.04    4.41    4.40    11.48052    24.32917     2.98739
    51  C   4.0    0.16    3.47    3.10     9.09641    22.99005     2.10260
    52  O   6.0   -0.30    1.27    1.80     9.09548    20.85062     1.20061
    53  C   4.0   -0.04    4.28    4.16    11.75557    23.43208     5.76358
    54  C   4.0   -0.03    4.16    3.93    14.30572    24.06924     6.91371
    55  C   4.0    0.25    3.09    3.02    14.46850    23.44579     9.78470
    56  O   6.0   -0.31    1.20    1.80    12.46917    22.77517    10.89169
    57  O   6.0   -0.28    1.16    1.80    16.61443    23.71195    10.72771
    58  H   1.0    0.08    1.05    1.44    11.60053    28.19905     4.10099
    59  H   1.0    0.06    1.05    1.44    13.04028    23.53788     1.86403
    60  H   1.0    0.06    1.03    1.43    10.26128    24.31554     6.88161
    61  H   1.0    0.06    1.04    1.43    11.49741    21.38837     5.74943
    62  H   1.0    0.06    1.02    1.43    15.81362    23.05546     5.94059
    63  H   1.0    0.05    1.03    1.43    14.68014    26.09179     6.73295
    64  N   5.0   -0.14    3.50    2.08     6.90717    24.20814     2.52274
    65  C   4.0    0.04    4.29    4.18     4.45489    23.19411     1.76678
    66  C   4.0    0.15    3.38    3.07     4.37174    22.89405    -1.14120
    67  O   6.0   -0.31    1.24    1.80     3.49901    20.95859    -2.10492
    68  C   4.0   -0.07    4.08    3.76     2.37794    24.82757     2.95915
    69  H   1.0    0.11    1.09    1.44     6.88042    25.87737     3.47082
    70  H   1.0    0.05    1.05    1.44     4.31757    21.24471     2.46943
    71  H   1.0    0.05    1.00    1.43     0.56752    23.88542     2.76172
    72  H   1.0    0.05    1.00    1.43     2.82122    25.08559     4.94499
    73  H   1.0    0.05    1.00    1.43     2.32790    26.66594     2.04753
    74  N   5.0   -0.14    3.48    2.06     5.34865    24.84549    -2.55174
    75  C   4.0    0.04    4.46    4.47     5.43081    24.72571    -5.26928
    76  C   4.0    0.16    3.45    3.09     7.02728    22.63548    -6.21061
    77  O   6.0   -0.30    1.25    1.80     6.39774    21.28022    -7.99290
    78  C   4.0   -0.04    4.43    4.43     6.10903    27.20988    -6.39936
    79  C   4.0   -0.02    4.18    3.95     4.13299    29.33603    -5.88205
    80  C   4.0   -0.08    4.15    3.91     5.53569    31.66303    -6.74285
    81  C   4.0   -0.08    4.09    3.78     1.73611    28.84903    -7.44557
    82  H   1.0    0.11    1.08    1.44     5.97914    26.40334    -1.63509
    83  H   1.0    0.05    1.07    1.44     3.52252    24.20650    -5.93894
    84  H   1.0    0.05    1.03    1.43     7.95128    27.76496    -5.64792
    85  H   1.0    0.05    1.04    1.43     6.27407    26.94493    -8.43589
    86  H   1.0    0.05    1.05    1.44     3.69121    29.42497    -3.87491
    87  H   1.0    0.03    1.00    1.43     4.37786    33.35132    -6.55070
    88  H   1.0    0.04    1.00    1.43     7.24236    31.91757    -5.63577
    89  H   1.0    0.04    1.01    1.43     6.04882    31.46784    -8.72276
    90  H   1.0    0.03    1.00    1.43     0.47377    30.46857    -7.37142
    91  H   1.0    0.04    1.00    1.43     2.22062    28.51764    -9.41599
    92  H   1.0    0.03    1.00    1.43     0.72370    27.19908    -6.77169
    93  N   5.0   -0.13    3.45    2.05     9.30789    22.29554    -5.03579
    94  C   4.0    0.04    4.39    4.36    11.04353    20.19202    -5.68766
    95  C   4.0    0.16    3.42    3.09     9.93186    17.61625    -5.12945
    96  O   6.0   -0.31    1.30    1.80    10.16360    15.92746    -6.73696
    97  C   4.0   -0.03    4.28    4.16    13.66753    20.56255    -4.53071
    98  C   4.0   -0.03    4.21    4.01    14.96354    22.91875    -5.55301
    99  C   4.0    0.25    3.14    3.03    17.62721    23.14591    -4.55966
   100  O   6.0   -0.27    1.20    1.80    18.24736    21.82332    -2.70381
   101  O   6.0   -0.32    1.30    1.80    19.08726    24.74628    -5.57967
   102  H   1.0    0.11    1.08    1.44     9.80489    23.39477    -3.55431
   103  H   1.0    0.06    1.06    1.44    11.24488    20.23638    -7.75942
   104  H   1.0    0.07    1.03    1.43    13.49827    20.70804    -2.47715
   105  H   1.0    0.06    1.03    1.43    14.80808    18.89035    -4.91924
   106  H   1.0    0.05    1.02    1.43    14.97114    22.90759    -7.61794
   107  H   1.0    0.07    1.03    1.43    13.93991    24.59329    -4.90585
   108  N   5.0   -0.13    3.47    2.06     8.58372    17.32060    -3.08888
   109  C   4.0    0.04    4.37    4.32     7.27482    14.89846    -2.54753
   110  C   4.0    0.15    3.45    3.10     5.27680    14.43113    -4.57408
   111  O   6.0   -0.31    1.26    1.80     4.96180    12.29586    -5.53975
   112  C   4.0   -0.04    4.29    4.18     6.13959    15.04335     0.11566
   113  C   4.0   -0.02    4.13    3.87     4.28794    12.78273     0.85197
   114  C   4.0   -0.07    4.09    3.78     5.93509    10.42818     1.13381
   115  C   4.0   -0.07    4.06    3.74     2.62629    13.44596     3.10763
   116  H   1.0    0.11    1.09    1.44     8.66207    18.59076    -1.65169
   117  H   1.0    0.05    1.05    1.44     8.64843    13.36128    -2.70415
   118  H   1.0    0.05    1.02    1.43     7.68887    15.14033     1.46541
   119  H   1.0    0.06    1.03    1.43     5.07068    16.80798     0.21068
   120  H   1.0    0.05    1.06    1.44     3.04644    12.48982    -0.77729
   121  H   1.0    0.05    1.00    1.43     4.80181     8.77387     1.55258
   122  H   1.0    0.05    1.00    1.43     6.92764    10.07903    -0.62490
   123  H   1.0    0.04    1.00    1.43     7.30752    10.69655     2.63711
   124  H   1.0    0.05    1.00    1.43     1.24673    11.95414     3.38235
   125  H   1.0    0.05    1.00    1.43     3.75134    13.61696     4.81180
   126  H   1.0    0.04    1.00    1.43     1.65105    15.21254     2.73053
   127  N   5.0   -0.13    3.49    2.07     3.73655    16.29317    -5.30928
   128  C   4.0    0.04    4.37    4.33     1.75829    15.92952    -7.16264
   129  C   4.0    0.16    3.45    3.09     3.00232    15.14613    -9.68334
   130  O   6.0   -0.30    1.24    1.80     1.96855    13.49275   -10.97586
   131  C   4.0   -0.05    4.24    4.07     0.16119    18.38634    -7.25439
   132  C   4.0   -0.05    4.13    3.86    -2.13644    18.23069    -9.06813
   133  C   4.0   -0.05    4.18    3.96    -3.29310    20.92475    -9.20257
   134  C   4.0   -0.05    4.11    3.82    -5.47667    21.20954   -11.04426
   135  N   5.0   -0.13    4.01    2.88    -7.75898    20.00667    -9.92954
   136  H   1.0    0.11    1.09    1.44     3.86834    18.03322    -4.50064
   137  H   1.0    0.05    1.06    1.44     0.58491    14.31774    -6.61588
   138  H   1.0    0.04    1.03    1.43    -0.49434    18.75185    -5.34102
   139  H   1.0    0.06    1.03    1.43     1.39505    19.92171    -7.86540
   140  H   1.0    0.05    1.02    1.43    -1.50474    17.66174   -10.94377
   141  H   1.0    0.04    1.02    1.43    -3.48771    16.85396    -8.37842
   142  H   1.0    0.03    1.03    1.43    -3.92622    21.47330    -7.32261
   143  H   1.0    0.04    1.03    1.43    -1.78914    22.21064    -9.78052
   144  H   1.0    0.03    1.02    1.43    -5.86668    23.21021   -11.35404
   145  H   1.0    0.04    1.02    1.43    -5.07462    20.32493   -12.85624
   146  H   1.0    0.04    1.02    1.43    -9.39683    20.49562   -10.85909
   147  H   1.0    0.04    0.99    1.43    -7.48321    17.97852   -10.02719
   148  H   1.0    0.04    1.03    1.43    -7.94387    20.51872    -8.07746
   149  N   5.0   -0.13    3.51    2.08     5.10533    16.31596   -10.49653
   150  C   4.0    0.05    4.51    4.54     6.27175    15.60749   -12.81508
   151  C   4.0    0.16    3.54    3.13     7.32210    12.92771   -12.61038
   152  O   6.0   -0.27    1.26    1.80     7.23269    11.59679   -14.50836
   153  C   4.0   -0.02    4.38    4.35     8.51809    17.19382   -13.34344
   154  C   4.0    0.26    3.14    3.03     7.71756    19.79540   -14.36666
   155  O   6.0   -0.29    1.19    1.80     5.49343    20.14751   -15.00696
   156  O   6.0   -0.33    1.40    1.80     9.53723    21.32962   -14.43949
   157  H   1.0    0.11    1.09    1.44     5.69271    17.91284    -9.60268
   158  H   1.0    0.07    1.06    1.44     4.91934    15.64674   -14.38356
   159  H   1.0    0.06    1.03    1.43     9.64959    17.45172   -11.63630
   160  H   1.0    0.06    1.04    1.43     9.70795    16.30784   -14.78113
   161  N   5.0   -0.14    3.50    2.08     8.39536    12.14885   -10.46938
   162  C   4.0    0.05    4.36    4.31     9.50970     9.66683   -10.32073
   163  C   4.0    0.17    3.42    3.08     7.53065     7.58083   -10.77477
   164  O   6.0   -0.30    1.33    1.80     8.18007     5.51941   -11.56297
   165  C   4.0   -0.06    4.12    3.83    10.88854     9.32264    -7.86011
   166  H   1.0    0.11    1.09    1.44     8.59927    13.32578    -8.97303
   167  H   1.0    0.07    1.06    1.44    10.86038     9.46014   -11.88678
   168  H   1.0    0.06    1.01    1.43    11.74057     7.45711    -7.79404
   169  H   1.0    0.06    1.00    1.43    12.38265    10.72097    -7.69313
   170  H   1.0    0.05    1.00    1.43     9.58351     9.54217    -6.28430
   171  N   5.0   -0.13    3.52    2.09     5.11884     8.12718   -10.23573
   172  C   4.0    0.04    4.34    4.28     3.06750     6.21155   -10.58691
   173  C   4.0    0.10    3.20    3.04     2.07598     6.50726   -13.25297
   174  O   6.0   -0.26    1.12    1.80     2.14569     4.84136   -14.83114
   175  C   4.0   -0.05    4.25    4.11     1.23038     6.48314    -8.41960
   176  C   4.0   -0.03    4.30    4.20     2.77522     6.37975    -6.01214
   177  C   4.0    0.15    3.21    3.04     1.40816     5.62726    -3.62205
   178  O   6.0   -0.27    1.25    1.80     2.44377     4.23459    -2.06472
   179  N   5.0   -0.19    3.18    1.95    -0.86001     6.68297    -3.19657
   180  H   1.0    0.11    1.07    1.44     4.63868     9.84469    -9.56837
   181  H   1.0    0.07    1.07    1.44     4.02733     4.37403   -10.52341
   182  H   1.0    0.05    1.03    1.43     0.17474     8.24137    -8.57059
   183  H   1.0    0.05    1.03    1.43    -0.10601     4.91015    -8.51358
   184  H   1.0    0.05    1.04    1.43     4.34879     5.06511    -6.24589
   185  H   1.0    0.06    1.04    1.43     3.60090     8.24100    -5.64777
   186  H   1.0    0.07    1.03    1.43    -1.72440     7.66676    -4.57576
   187  H   1.0    0.11    1.04    1.43    -1.90622     5.84970    -1.81221
   188  O   6.0   -0.32    2.07    1.83    17.15538    29.00883    -7.80766
   189  H   1.0    0.15    1.00    1.43    17.28585    27.20407    -7.35589
   190  H   1.0    0.13    0.98    1.43    18.60674    29.58834    -6.85420
   191  O   6.0   -0.32    2.01    1.83    14.08681    21.61786   -12.60405
   192  H   1.0    0.13    0.97    1.43    15.01910    21.82100   -14.15137
   193  H   1.0    0.16    1.05    1.44    12.35936    21.20038   -13.17558
   194  O   6.0   -0.28    1.93    1.82    17.08690    12.55767    -2.56519
   195  H   1.0    0.14    0.97    1.43    18.06900    13.90384    -1.86102
   196  H   1.0    0.14    0.99    1.43    16.59492    13.10618    -4.24341
   197  O   6.0   -0.30    1.94    1.82    15.70989    14.53716    -7.75473
   198  H   1.0    0.15    1.02    1.43    16.54985    15.83945    -8.74771
   199  H   1.0    0.15    0.98    1.43    13.93434    14.95833    -7.72444
   200  O   6.0   -0.30    1.98    1.82    17.86487    18.68580    -9.94348
   201  H   1.0    0.14    0.97    1.43    18.25584    19.64308    -8.45425
   202  H   1.0    0.14    0.99    1.43    16.51650    19.61376   -10.80389
   203  O   6.0   -0.29    1.93    1.82    23.24165    26.91338    -3.81844
   204  H   1.0    0.14    0.97    1.43    23.24270    27.23102    -2.03765
   205  H   1.0    0.18    1.04    1.43    21.63367    26.09595    -4.20934
   206  O   6.0   -0.29    1.92    1.82    12.55767    17.08690     2.56519
   207  H   1.0    0.14    0.97    1.43    13.90384    18.06900     1.86102
   208  H   1.0    0.13    0.97    1.43    13.10618    16.59492     4.24341
   209  O   6.0   -0.30    1.92    1.82    13.79638    28.22070   -18.05629
   210  H   1.0    0.15    1.00    1.43    14.92421    28.68860   -16.68452
   211  H   1.0    0.13    0.97    1.43    12.48686    27.20307   -17.33137
   212  O   6.0   -0.32    1.96    1.82    10.93538     2.73396    -8.41967
   213  H   1.0    0.14    0.98    1.43    12.10514     1.67214    -9.32231
   214  H   1.0    0.17    1.05    1.44    10.13187     3.76677    -9.70419
   215  O   6.0   -0.32    1.96    1.82     2.73396    10.93538     8.41967
   216  H   1.0    0.14    0.98    1.43     1.67214    12.10514     9.32231
   217  H   1.0    0.16    1.04    1.44     3.76677    10.13187     9.70419
   218  N   5.0   -0.20    3.23    1.96    21.22336    30.97847   -10.90868
   219  C   4.0    0.03    4.23    4.05    21.59071    29.75327   -13.34579
   220  C   4.0    0.07    3.21    3.04    19.71486    30.71838   -15.28059
   221  O   6.0   -0.31    1.18    1.80    17.46029    30.56766   -14.83917
   222  C   4.0   -0.04    4.26    4.12    21.14732    26.89644   -12.91131
   223  C   4.0   -0.05    4.15    3.90    22.61761    25.30054   -14.85910
   224  C   4.0   -0.00    4.17    3.95    22.17915    22.40313   -14.53835
   225  N   5.0   -0.14    3.40    2.02    23.52397    21.07951   -16.55085
   226  C   4.0    0.10    3.33    3.06    23.26151    18.62569   -17.09031
   227  N   5.0   -0.17    3.24    1.97    21.48591    17.27426   -15.89883
   228  N   5.0   -0.19    3.23    1.96    24.56588    17.70104   -19.04365
   229  H   1.0    0.11    1.07    1.44    19.70520    30.35684    -9.93155
   230  H   1.0    0.03    1.05    1.44    23.53812    30.11966   -13.92906
   231  H   1.0    0.05    1.03    1.43    21.77154    26.38825   -11.01559
   232  H   1.0    0.06    1.03    1.43    19.12694    26.51558   -13.03600
   233  H   1.0    0.04    1.03    1.43    21.97898    25.82917   -16.74504
   234  H   1.0    0.04    1.02    1.43    24.62176    25.70772   -14.65220
   235  H   1.0    0.06    1.02    1.43    22.83531    21.78921   -12.67655
   236  H   1.0    0.05    1.02    1.43    20.16525    21.99144   -14.67786
   237  H   1.0    0.07    1.07    1.44    24.94548    22.05179   -17.37788
   238  H   1.0    0.11    1.04    1.43    20.99024    17.76344   -14.12050
   239  H   1.0    0.10    1.03    1.43    21.37750    15.38914   -16.24208
   240  H   1.0    0.07    1.03    1.43    25.83211    18.76908   -19.97808
   241  H   1.0    0.08    1.03    1.43    24.39877    15.85757   -19.48151
   242  N   5.0   -0.22    3.17    1.95    12.00964    37.67323   -17.95688
   243  C   4.0    0.02    4.17    3.93    11.53537    37.60308   -15.23456
   244  C   4.0    0.07    3.19    3.03    12.91383    39.69102   -13.77568
   245  O   6.0   -0.31    1.10    1.80    11.90401    40.89769   -12.02166
   246  C   4.0   -0.04    4.24    4.07    12.26251    34.99949   -14.16043
   247  C   4.0   -0.05    4.15    3.89    11.43769    34.50579   -11.36127
   248  C   4.0   -0.01    4.20    4.00    12.19532    31.77881   -10.55483
   249  N   5.0   -0.14    3.44    2.04    10.33896    30.11706   -11.88063
   250  C   4.0    0.10    3.34    3.06    10.66440    27.64712   -12.05057
   251  N   5.0   -0.18    3.31    1.99    12.87847    26.74566   -11.34246
   252  N   5.0   -0.18    3.26    1.97     8.93830    26.19783   -13.13096
   253  H   1.0    0.08    1.02    1.43    12.59285    36.06891   -18.84234
   254  H   1.0    0.04    1.05    1.44     9.50760    37.93300   -14.91179
   255  H   1.0    0.05    1.03    1.43    11.33075    33.57338   -15.31883
   256  H   1.0    0.05    1.02    1.43    14.30154    34.75415   -14.31317
   257  H   1.0    0.05    1.02    1.43    12.34894    35.88949   -10.14601
   258  H   1.0    0.04    1.02    1.43     9.40439    34.74265   -11.18418
   259  H   1.0    0.06    1.03    1.43    14.09644    31.39628   -11.24131
   260  H   1.0    0.04    1.02    1.43    12.03246    31.52011    -8.52532
   261  H   1.0    0.07    1.06    1.44     8.71694    30.90710   -12.54160
   262  H   1.0    0.10    1.06    1.44    14.10096    27.77524   -10.31602
   263  H   1.0    0.11    1.07    1.44    13.20655    24.85103   -11.48378
   264  H   1.0    0.09    1.03    1.43     7.23735    26.90457   -13.61946
   265  H   1.0    0.13    1.10    1.44     9.18567    24.30439   -13.42764
   266  N   5.0   -0.22    3.15    1.95    27.05645    11.40474    -2.56604
   267  C   4.0    0.03    4.19    3.98    24.32917    11.48052    -2.98739
   268  C   4.0    0.07    3.24    3.04    22.99005     9.09641    -2.10260
   269  O   6.0   -0.31    1.16    1.80    20.85062     9.09548    -1.20061
   270  C   4.0   -0.04    4.28    4.15    23.43208    11.75557    -5.76358
   271  C   4.0   -0.03    4.16    3.93    24.06924    14.30572    -6.91371
   272  C   4.0    0.25    3.09    3.02    23.44579    14.46850    -9.78470
   273  O   6.0   -0.30    1.20    1.80    22.77517    12.46917   -10.89169
   274  O   6.0   -0.29    1.17    1.80    23.71195    16.61443   -10.72771
   275  H   1.0    0.08    1.02    1.43    28.19905    11.60053    -4.10099
   276  H   1.0    0.05    1.05    1.44    23.53788    13.04028    -1.86403
   277  H   1.0    0.05    1.03    1.43    24.31554    10.26128    -6.88161
   278  H   1.0    0.06    1.04    1.43    21.38837    11.49741    -5.74943
   279  H   1.0    0.06    1.02    1.43    23.05546    15.81362    -5.94059
   280  H   1.0    0.04    1.03    1.43    26.09179    14.68014    -6.73295
   281  N   5.0   -0.21    3.19    1.95    22.29554     9.30789     5.03579
   282  C   4.0    0.03    4.31    4.21    20.19202    11.04353     5.68766
   283  C   4.0    0.15    3.41    3.08    17.61625     9.93186     5.12945
   284  O   6.0   -0.31    1.28    1.80    15.92746    10.16360     6.73696
   285  C   4.0   -0.03    4.28    4.16    20.56255    13.66753     4.53071
   286  C   4.0   -0.03    4.20    4.01    22.91875    14.96354     5.55301
   287  C   4.0    0.24    3.13    3.03    23.14591    17.62721     4.55966
   288  O   6.0   -0.27    1.20    1.80    21.82332    18.24736     2.70381
   289  O   6.0   -0.28    1.16    1.80    24.74628    19.08726     5.57967
   290  H   1.0    0.09    1.02    1.43    23.39477     9.80489     3.55431
   291  H   1.0    0.05    1.06    1.44    20.23638    11.24488     7.75942
   292  H   1.0    0.06    1.03    1.43    20.70804    13.49827     2.47715
   293  H   1.0    0.06    1.03    1.43    18.89035    14.80808     4.91924
   294  H   1.0    0.05    1.02    1.43    22.90759    14.97114     7.61794
   295  H   1.0    0.04    1.03    1.43    24.59329    13.93991     4.90585
   296  N   5.0   -0.14    3.45    2.05    17.32060     8.58372     3.08888
   297  C   4.0    0.04    4.29    4.18    14.89846     7.27482     2.54753
   298  C   4.0    0.08    3.24    3.04    14.43113     5.27680     4.57408
   299  O   6.0   -0.31    1.12    1.80    12.29586     4.96180     5.53975
   300  C   4.0   -0.05    4.29    4.18    15.04335     6.13959    -0.11566
   301  C   4.0   -0.02    4.13    3.87    12.78273     4.28794    -0.85197
   302  C   4.0   -0.07    4.09    3.78    10.42818     5.93509    -1.13381
   303  C   4.0   -0.07    4.06    3.74    13.44596     2.62629    -3.10763
   304  H   1.0    0.11    1.09    1.44    18.59076     8.66207     1.65169
   305  H   1.0    0.06    1.05    1.44    13.36128     8.64843     2.70415
   306  H   1.0    0.06    1.02    1.43    15.14033     7.68887    -1.46541
   307  H   1.0    0.05    1.03    1.43    16.80798     5.07068    -0.21068
   308  H   1.0    0.05    1.06    1.44    12.48982     3.04644     0.77729
   309  H   1.0    0.05    1.00    1.43     8.77387     4.80181    -1.55258
   310  H   1.0    0.05    1.00    1.43    10.07903     6.92764     0.62490
   311  H   1.0    0.04    1.00    1.43    10.69655     7.30752    -2.63711
   312  H   1.0    0.05    1.00    1.43    11.95414     1.24673    -3.38235
   313  H   1.0    0.05    1.00    1.43    13.61696     3.75134    -4.81180
   314  H   1.0    0.03    1.00    1.43    15.21254     1.65105    -2.73053
   315  N   5.0   -0.20    3.25    1.97    12.14885     8.39536    10.46938
   316  C   4.0    0.03    4.24    4.08     9.66683     9.50970    10.32073
   317  C   4.0    0.15    3.38    3.07     7.58083     7.53065    10.77477
   318  O   6.0   -0.31    1.32    1.80     5.51941     8.18007    11.56297
   319  C   4.0   -0.06    4.11    3.83     9.32264    10.88854     7.86011
   320  H   1.0    0.12    1.05    1.44    13.32578     8.59927     8.97303
   321  H   1.0    0.05    1.06    1.44     9.46014    10.86038    11.88678
   322  H   1.0    0.05    1.00    1.43     7.45711    11.74057     7.79404
   323  H   1.0    0.05    1.00    1.43    10.72097    12.38265     7.69313
   324  H   1.0    0.05    1.00    1.43     9.54217     9.58351     6.28430
   325  N   5.0   -0.14    3.50    2.08     8.12718     5.11884    10.23573
   326  C   4.0    0.03    4.34    4.28     6.21155     3.06750    10.58691
   327  C   4.0    0.08    3.20    3.04     6.50726     2.07598    13.25297
   328  O   6.0   -0.28    1.12    1.80     4.84136     2.14569    14.83114
   329  C   4.0   -0.05    4.25    4.11     6.48314     1.23038     8.41960
   330  C   4.0   -0.03    4.30    4.20     6.37975     2.77522     6.01214
   331  C   4.0    0.15    3.21    3.04     5.62726     1.40816     3.62205
   332  O   6.0   -0.27    1.25    1.80     4.23459     2.44377     2.06472
   333  N   5.0   -0.18    3.18    1.95     6.68297    -0.86001     3.19657
   334  H   1.0    0.09    1.07    1.44     9.84469     4.63868     9.56837
   335  H   1.0    0.07    1.07    1.44     4.37403     4.02733    10.52341
   336  H   1.0    0.04    1.03    1.43     8.24137     0.17474     8.57059
   337  H   1.0    0.05    1.03    1.43     4.91015    -0.10601     8.51358
   338  H   1.0    0.05    1.04    1.43     5.06511     4.34879     6.24589
   339  H   1.0    0.06    1.04    1.43     8.24100     3.60090     5.64777
   340  H   1.0    0.08    1.03    1.43     7.66676    -1.72440     4.57576
   341  H   1.0    0.11    1.04    1.43     5.84970    -1.90622     1.81221
   342  N   5.0   -0.22    3.22    1.96    -6.90717    24.20814    -2.52274
   343  C   4.0    0.02    4.20    4.00    -4.45489    23.19411    -1.76678
   344  C   4.0    0.14    3.36    3.07    -4.37174    22.89405     1.14120
   345  O   6.0   -0.32    1.23    1.80    -3.49901    20.95859     2.10492
   346  C   4.0   -0.08    4.07    3.75    -2.37794    24.82757    -2.95915
   347  H   1.0    0.07    1.03    1.43    -6.88042    25.87737    -3.47082
   348  H   1.0    0.04    1.05    1.44    -4.31757    21.24471    -2.46943
   349  H   1.0    0.05    1.00    1.43    -0.56752    23.88542    -2.76172
   350  H   1.0    0.03    1.00    1.43    -2.82122    25.08559    -4.94499
   351  H   1.0    0.04    1.00    1.43    -2.32790    26.66594    -2.04753
   352  N   5.0   -0.15    3.44    2.04    -5.34865    24.84549     2.55174
   353  C   4.0    0.03    4.36    4.31    -5.43081    24.72571     5.26928
   354  C   4.0    0.08    3.28    3.05    -7.02728    22.63548     6.21061
   355  O   6.0   -0.30    1.12    1.80    -6.39774    21.28022     7.99290
   356  C   4.0   -0.05    4.43    4.43    -6.10903    27.20988     6.39936
   357  C   4.0   -0.03    4.18    3.95    -4.13299    29.33603     5.88205
   358  C   4.0   -0.08    4.15    3.91    -5.53569    31.66303     6.74285
   359  C   4.0   -0.07    4.09    3.78    -1.73611    28.84903     7.44557
   360  H   1.0    0.07    1.06    1.44    -5.97914    26.40334     1.63509
   361  H   1.0    0.05    1.07    1.44    -3.52252    24.20650     5.93894
   362  H   1.0    0.03    1.03    1.43    -7.95128    27.76496     5.64792
   363  H   1.0    0.04    1.04    1.43    -6.27407    26.94493     8.43589
   364  H   1.0    0.03    1.05    1.44    -3.69121    29.42497     3.87491
   365  H   1.0    0.03    1.00    1.43    -4.37786    33.35132     6.55070
   366  H   1.0    0.03    1.00    1.43    -7.24236    31.91757     5.63577
   367  H   1.0    0.04    1.01    1.43    -6.04882    31.46784     8.72276
   368  H   1.0    0.04    1.00    1.43    -0.47377    30.46857     7.37142
   369  H   1.0    0.05    1.00    1.43    -2.22062    28.51764     9.41599
   370  H   1.0    0.04    1.00    1.43    -0.72370    27.19908     6.77169
   371  N   5.0   -0.20    3.20    1.96    -8.58372    17.32060     3.08888
   372  C   4.0    0.02    4.25    4.11    -7.27482    14.89846     2.54753
   373  C   4.0    0.14    3.42    3.08    -5.27680    14.43113     4.57408
   374  O   6.0   -0.31    1.26    1.80    -4.96180    12.29586     5.53975
   375  C   4.0   -0.05    4.29    4.18    -6.13959    15.04335    -0.11566
   376  C   4.0   -0.02    4.13    3.87    -4.28794    12.78273    -0.85197
   377  C   4.0   -0.07    4.09    3.78    -5.93509    10.42818    -1.13381
   378  C   4.0   -0.08    4.06    3.73    -2.62629    13.44596    -3.10763
   379  H   1.0    0.08    1.02    1.43    -8.66207    18.59076     1.65169
   380  H   1.0    0.04    1.05    1.44    -8.64843    13.36128     2.70415
   381  H   1.0    0.03    1.02    1.43    -7.68887    15.14033    -1.46541
   382  H   1.0    0.05    1.03    1.43    -5.07068    16.80798    -0.21068
   383  H   1.0    0.05    1.06    1.44    -3.04644    12.48982     0.77729
   384  H   1.0    0.05    1.00    1.43    -4.80181     8.77387    -1.55258
   385  H   1.0    0.05    1.00    1.43    -6.92764    10.07903     0.62490
   386  H   1.0    0.03    1.00    1.43    -7.30752    10.69655    -2.63711
   387  H   1.0    0.04    1.00    1.43    -1.24673    11.95414    -3.38235
   388  H   1.0    0.04    1.00    1.43    -3.75134    13.61696    -4.81180
   389  H   1.0    0.04    1.00    1.43    -1.65105    15.21254    -2.73053
   390  N   5.0   -0.13    3.46    2.06    -3.73655    16.29317     5.30928
   391  C   4.0    0.04    4.30    4.19    -1.75829    15.92952     7.16264
   392  C   4.0    0.09    3.22    3.04    -3.00232    15.14613     9.68334
   393  O   6.0   -0.30    1.12    1.80    -1.96855    13.49275    10.97586
   394  C   4.0   -0.05    4.23    4.07    -0.16119    18.38634     7.25439
   395  C   4.0   -0.05    4.13    3.86     2.13644    18.23069     9.06813
   396  C   4.0   -0.05    4.18    3.96     3.29310    20.92475     9.20257
   397  C   4.0   -0.03    4.11    3.82     5.47667    21.20954    11.04426
   398  N   5.0   -0.11    4.01    2.90     7.75898    20.00667     9.92954
   399  H   1.0    0.11    1.09    1.44    -3.86834    18.03322     4.50064
   400  H   1.0    0.05    1.06    1.44    -0.58491    14.31774     6.61588
   401  H   1.0    0.05    1.03    1.43     0.49434    18.75185     5.34102
   402  H   1.0    0.06    1.03    1.43    -1.39505    19.92171     7.86540
   403  H   1.0    0.05    1.02    1.43     1.50474    17.66174    10.94377
   404  H   1.0    0.04    1.02    1.43     3.48771    16.85396     8.37842
   405  H   1.0    0.04    1.03    1.43     3.92622    21.47330     7.32261
   406  H   1.0    0.05    1.03    1.43     1.78914    22.21064     9.78052
   407  H   1.0    0.05    1.02    1.43     5.86668    23.21021    11.35404
   408  H   1.0    0.04    1.02    1.43     5.07462    20.32493    12.85624
   409  H   1.0    0.08    1.04    1.43     9.39683    20.49562    10.85909
   410  H   1.0    0.05    0.99    1.43     7.48321    17.97852    10.02719
   411  H   1.0    0.06    1.03    1.43     7.94387    20.51872     8.07746
   412  N   5.0   -0.20    3.25    1.97    -5.11884     8.12718    10.23573
   413  C   4.0    0.03    4.25    4.10    -3.06750     6.21155    10.58691
   414  C   4.0    0.10    3.19    3.03    -2.07598     6.50726    13.25297
   415  O   6.0   -0.28    1.12    1.80    -2.14569     4.84136    14.83114
   416  C   4.0   -0.04    4.26    4.12    -1.23038     6.48314     8.41960
   417  C   4.0   -0.03    4.31    4.21    -2.77522     6.37975     6.01214
   418  C   4.0    0.15    3.21    3.04    -1.40816     5.62726     3.62205
   419  O   6.0   -0.29    1.21    1.80    -2.44377     4.23459     2.06472
   420  N   5.0   -0.18    3.19    1.95     0.86001     6.68297     3.19657
   421  H   1.0    0.11    1.02    1.43    -4.63868     9.84469     9.56837
   422  H   1.0    0.05    1.06    1.44    -4.02733     4.37403    10.52341
   423  H   1.0    0.07    1.04    1.43    -0.17474     8.24137     8.57059
   424  H   1.0    0.05    1.03    1.43     0.10601     4.91015     8.51358
   425  H   1.0    0.05    1.04    1.43    -4.34879     5.06511     6.24589
   426  H   1.0    0.06    1.04    1.43    -3.60090     8.24100     5.64777
   427  H   1.0    0.09    1.03    1.43     1.72440     7.66676     4.57576
   428  H   1.0    0.13    1.05    1.44     1.90622     5.84970     1.81221
   429  N   5.0   -0.22    3.21    1.96    16.29317    -3.73655    -5.30928
   430  C   4.0    0.03    4.19    3.98    15.92952    -1.75829    -7.16264
   431  C   4.0    0.07    3.18    3.03    15.14613    -3.00232    -9.68334
   432  O   6.0   -0.33    1.17    1.80    13.49275    -1.96855   -10.97586
   433  C   4.0   -0.06    4.23    4.07    18.38634    -0.16119    -7.25439
   434  C   4.0   -0.04    4.14    3.88    18.23069     2.13644    -9.06813
   435  C   4.0   -0.05    4.18    3.96    20.92475     3.29310    -9.20257
   436  C   4.0   -0.03    4.11    3.83    21.20954     5.47667   -11.04426
   437  N   5.0   -0.10    4.09    3.11    20.00667     7.75898    -9.92954
   438  H   1.0    0.07    1.03    1.43    18.03322    -3.86834    -4.50064
   439  H   1.0    0.05    1.06    1.44    14.31774    -0.58491    -6.61588
   440  H   1.0    0.03    1.03    1.43    18.75185     0.49434    -5.34102
   441  H   1.0    0.03    1.03    1.43    19.92171    -1.39505    -7.86540
   442  H   1.0    0.05    1.02    1.43    17.66174     1.50474   -10.94377
   443  H   1.0    0.06    1.03    1.43    16.85396     3.48771    -8.37842
   444  H   1.0    0.04    1.03    1.43    21.47330     3.92622    -7.32261
   445  H   1.0    0.03    1.03    1.43    22.21064     1.78914    -9.78052
   446  H   1.0    0.04    1.02    1.43    23.21021     5.86668   -11.35404
   447  H   1.0    0.05    1.02    1.43    20.32493     5.07462   -12.85624
   448  H   1.0    0.10    1.04    1.43    20.49562     9.39683   -10.85909
   449  H   1.0    0.11    1.16    1.46    17.97852     7.48321   -10.02719
   450  H   1.0    0.06    1.03    1.43    20.51872     7.94387    -8.07746
   451  N   5.0   -0.21    3.29    1.98     8.12718    -5.11884   -10.23573
   452  C   4.0    0.03    4.39    4.36     6.21155    -3.06750   -10.58691
   453  C   4.0    0.16    3.40    3.08     6.50726    -2.07598   -13.25297
   454  O   6.0   -0.30    1.24    1.80     4.84136    -2.14569   -14.83114
   455  C   4.0   -0.04    4.27    4.14     6.48314    -1.23038    -8.41960
   456  C   4.0   -0.04    4.31    4.21     6.37975    -2.77522    -6.01214
   457  C   4.0    0.15    3.21    3.04     5.62726    -1.40816    -3.62205
   458  O   6.0   -0.29    1.21    1.80     4.23459    -2.44377    -2.06472
   459  N   5.0   -0.18    3.19    1.95     6.68297     0.86001    -3.19657
   460  H   1.0    0.09    1.02    1.43     9.84469    -4.63868    -9.56837
   461  H   1.0    0.05    1.06    1.44     4.37403    -4.02733   -10.52341
   462  H   1.0    0.06    1.04    1.43     8.24137    -0.17474    -8.57059
   463  H   1.0    0.05    1.03    1.43     4.91015     0.10601    -8.51358
   464  H   1.0    0.05    1.04    1.43     5.06511    -4.34879    -6.24589
   465  H   1.0    0.04    1.03    1.43     8.24100    -3.60090    -5.64777
   466  H   1.0    0.09    1.03    1.43     7.66676     1.72440    -4.57576
   467  H   1.0    0.13    1.05    1.44     5.84970     1.90622    -1.81221
   468  N   5.0   -0.13    3.51    2.08     8.82520    -1.18659   -13.61423
   469  C   4.0    0.04    4.27    4.14    10.00505    -0.48341   -15.99660
   470  C   4.0    0.16    3.38    3.07    10.66072     2.39146   -15.99328
   471  O   6.0   -0.27    1.24    1.80     9.56620     3.89440   -17.37951
   472  C   4.0   -0.05    4.16    3.92     8.42738    -1.25274   -18.27931
   473  H   1.0    0.10    1.12    1.45    10.09854    -1.42568   -12.21202
   474  H   1.0    0.04    1.05    1.44    11.82555    -1.48547   -16.06051
   475  H   1.0    0.04    1.00    1.43     9.49163    -0.84022   -19.98961
   476  H   1.0    0.05    1.01    1.43     8.03320    -3.24815   -18.17523
   477  H   1.0    0.08    1.01    1.43     6.66460    -0.21127   -18.33303
   478  N   5.0   -0.13    3.29    1.98    12.58207     3.13576   -14.48086
   479  C   4.0    0.03    4.24    4.07    13.49648     5.70507   -14.81458
   480  C   4.0    0.23    3.14    3.03    15.37006     6.90807   -12.94177
   481  O   6.0   -0.30    1.22    1.80    16.90881     8.39700   -13.91397
   482  O   6.0   -0.33    1.35    1.80    15.25260     6.47036   -10.62379
   483  H   1.0    0.09    1.06    1.44    13.53937     1.87181   -13.42598
   484  H   1.0    0.06    1.03    1.43    14.37184     5.86975   -16.69055
   485  H   1.0    0.08    1.03    1.43    11.81858     6.92553   -14.85612
   486  H   1.0    0.09    1.07    1.44    11.84403    31.59156     9.87923
   487  H   1.0    0.07    1.05    1.44     1.30979     8.14585   -13.79979
   488  H   1.0    0.09    1.07    1.44    22.58640    30.71059    -9.92739
   489  H   1.0    0.04    1.04    1.44    20.33123    31.47007   -16.90112
   490  H   1.0    0.08    1.07    1.44    10.58288    38.11467   -18.77053
   491  H   1.0    0.05    1.04    1.44    14.69690    40.13364   -14.21817
   492  H   1.0    0.09    1.07    1.44    27.50310    12.66194    -1.51129
   493  H   1.0    0.05    1.05    1.44    23.85320     7.42107    -2.24137
   494  H   1.0    0.09    1.07    1.44    23.34920     9.16902     6.36360
   495  H   1.0    0.05    1.04    1.43    15.85134     4.17800     5.16289
   496  H   1.0    0.10    1.07    1.44    12.99404     9.06513    11.78453
   497  H   1.0    0.05    1.05    1.44     8.14585     1.30979    13.79979
   498  H   1.0    0.08    1.07    1.44    -7.68785    23.09958    -3.54947
   499  H   1.0    0.05    1.05    1.44    -8.69267    22.27643     5.39290
   500  H   1.0    0.09    1.07    1.44   -10.19864    17.00883     3.52178
   501  H   1.0    0.06    1.04    1.43    -4.60906    15.97028    10.24033
   502  H   1.0    0.09    1.07    1.44    -6.26797     7.53257     9.13187
   503  H   1.0    0.07    1.05    1.44    -1.30979     8.14585    13.79979
   504  H   1.0    0.09    1.07    1.44    15.20708    -3.51297    -4.01971
   505  H   1.0    0.04    1.04    1.43    15.97028    -4.60906   -10.24033
   506  H   1.0    0.09    1.07    1.44     7.53257    -6.26797    -9.13187

  Z AO/shell   Hii/eV     exponent
  1     Wed Apr 25 08:07:45 CEST 2018   EN: 2.200 GM2: 0.406  GM3: 0.0800  RAES: 1.40
     1s    -10.707211    1.230000
  6     Wed Apr 25 08:07:45 CEST 2018   EN: 2.550 GM2: 0.538  GM3: 0.1500  RAES: 3.00
     2s    -13.970922    2.096432
     2p    -10.063292    1.800000
  7     Wed Apr 25 08:07:45 CEST 2018   EN: 3.040 GM2: 0.461  GM3:-0.0640  RAES: 1.90
     2s    -16.686243    2.339881
     2p    -12.523956    2.014332
  8     Wed Apr 25 08:07:45 CEST 2018   EN: 3.440 GM2: 0.452  GM3:-0.0517  RAES: 1.80
     2s    -20.229985    2.439742
     2p    -15.503117    2.137023
 no old-style atom pair restraining (fixing) potential

molecular fragmentation (1/2 indicates fragments):
111111111111111111111111111111111111111111111111111111111111111111111111
111111111111111111111111111111111111111111111111111111111111111111111111
111111111111111111111111111111111111111111122222222222222222222222222222
222222222222222222222222222222222222222222222222222222222222222222222222
222222222222222222222222222222222222222222222222222222222222222222222222
222222222222222222222222222222222222222222222222222222222222222222222222
222222222222222222222222222222222222222222222222222221122222222222222222
22
# atoms in fragment 1/2:   189   317
 fragment masses (1/2) :     1353.47     2038.42
CMA distance (Bohr)    :   8.443
constraining FC (au)   :  0.0500
           ------------------------------------------------- 
          |        Self-Consistent Charge Iterations        |
           ------------------------------------------------- 

 Ncao       : 1208
 Nao        : 1208
 Nshell     : 740
 Nel        : 1364
 T(el)      :   500.0
 intcut     :    35.0
 scfconv/Eh :  0.100E-06
   qconv/e  :  0.100E-04
 intneglect :  0.100E-08
 broydamp   :      0.400
 iter      E             dE          RMSdq      gap      omega  full diag
   1   -787.8635383 -0.787864E+03  0.479E+00    3.25       0.0  T
   2   -789.9876778 -0.212414E+01  0.222E+00    1.96       1.0  T
   3   -790.1394180 -0.151740E+00  0.128E+00    2.04       1.0  T
   4   -790.2805622 -0.141144E+00  0.286E-01    1.33       1.0  T
   5   -790.2886885 -0.812630E-02  0.143E-01    1.50       1.0  T
   6   -790.2904590 -0.177046E-02  0.593E-02    1.50       1.0  T
   7   -790.2908160 -0.357080E-03  0.280E-02    1.53       1.0  T
   8   -790.2908749 -0.588261E-04  0.114E-02    1.54       1.0  T
   9   -790.2908918 -0.169777E-04  0.533E-03    1.55       1.0  T
  10   -790.2908941 -0.228395E-05  0.226E-03    1.55       2.0  T
  11   -790.2908949 -0.727629E-06  0.903E-04    1.55       4.9  T
  12   -790.2908949 -0.796656E-07  0.398E-04    1.55      11.2  T
  13   -790.2908950 -0.155374E-07  0.198E-04    1.55      22.4  T
  14   -790.2908950 -0.381067E-08  0.710E-05    1.55      62.6  T
  15   -790.2908950 -0.493515E-09  0.321E-05    1.55     138.7  T
speedup  8.22
cpu  time for SCC   51.83 s
wall time for SCC    6.31 s

   *** convergence criteria satisfied after 15 iterations ***

          eigenvalues
 #    :         670        671        672        673        674        675        676        677
 occ. :        2.000      2.000      2.000      2.000      2.000      2.000      2.000      2.000
 eps  :       -10.202    -10.110    -10.048    -10.036    -10.018     -9.911     -9.891     -9.864
 #    :         678        679        680        681        682        683        684        685
 occ. :        2.000      2.000      2.000      2.000      2.000      0.000      0.000      0.000
 eps  :        -9.821     -9.814     -9.795     -9.697     -9.645     -8.096     -8.038     -7.940
 #    :         686        687        688        689        690        691        692        693
 occ. :        0.000      0.000      0.000      0.000      0.000      0.000      0.000      0.000
 eps  :        -7.812     -7.811     -7.763     -7.753     -7.706     -7.649     -7.341     -7.307


   #   Z            q   n(s)   n(p)   n(d)      C6AA      α(0)
   1   7 N     -0.398  1.313  4.086  0.000    30.328     8.179
   2   6 C      0.026  1.070  2.904  0.000    20.153     6.395
   3   6 C      0.260  1.053  2.687  0.000    22.619     7.789
   4   8 O     -0.499  1.740  4.759  0.000    23.753     6.534
   5   6 C     -0.050  1.056  2.994  0.000    21.476     6.598
   6   6 C     -0.089  1.065  3.024  0.000    22.207     6.709
   7   6 C      0.369  1.025  2.606  0.000    20.751     7.455
   8   8 O     -0.639  1.768  4.871  0.000    27.086     6.978
   9   8 O     -0.659  1.778  4.881  0.000    27.607     7.044
  10   1 H      0.170  0.830  0.000  0.000     1.271     1.766
  11   1 H      0.021  0.979  0.000  0.000     2.724     2.581
  12   1 H      0.034  0.966  0.000  0.000     2.534     2.489
  13   1 H      0.045  0.955  0.000  0.000     2.382     2.414
  14   1 H      0.031  0.969  0.000  0.000     2.569     2.506
  15   1 H      0.010  0.990  0.000  0.000     2.896     2.661
  16   7 N     -0.161  1.233  3.928  0.000    24.479     7.348
  17   6 C      0.016  1.059  2.925  0.000    20.306     6.415
  18   6 C      0.268  1.047  2.685  0.000    22.479     7.764
  19   8 O     -0.468  1.734  4.734  0.000    23.085     6.442
  20   6 C     -0.088  1.069  3.020  0.000    22.178     6.703
  21   6 C     -0.011  1.050  2.961  0.000    20.740     6.477
  22   6 C     -0.121  1.042  3.079  0.000    22.830     6.807
  23   6 C     -0.121  1.041  3.080  0.000    22.847     6.810
  24   1 H      0.219  0.781  0.000  0.000     1.014     1.578
  25   1 H      0.096  0.904  0.000  0.000     1.827     2.114
  26   1 H      0.061  0.939  0.000  0.000     2.190     2.314
  27   1 H      0.086  0.914  0.000  0.000     1.918     2.166
  28   1 H      0.029  0.971  0.000  0.000     2.603     2.523
  29   1 H      0.047  0.953  0.000  0.000     2.355     2.400
  30   1 H      0.036  0.964  0.000  0.000     2.507     2.476
  31   1 H      0.058  0.942  0.000  0.000     2.218     2.329
  32   1 H      0.046  0.954  0.000  0.000     2.373     2.409
  33   1 H      0.063  0.937  0.000  0.000     2.166     2.302
  34   1 H      0.034  0.966  0.000  0.000     2.525     2.485
  35   7 N     -0.181  1.243  3.938  0.000    24.921     7.414
  36   6 C      0.027  1.056  2.917  0.000    20.122     6.387
  37   6 C      0.273  1.048  2.679  0.000    22.393     7.750
  38   8 O     -0.505  1.760  4.745  0.000    23.898     6.554
  39   6 C     -0.114  1.060  3.054  0.000    22.653     6.772
  40   6 C      0.296  1.016  2.687  0.000    21.972     7.675
  41   8 O     -0.552  1.778  4.774  0.000    24.970     6.700
  42   7 N     -0.287  1.268  4.019  0.000    27.397     7.774
  43   1 H      0.215  0.785  0.000  0.000     1.035     1.593
  44   1 H      0.105  0.895  0.000  0.000     1.742     2.064
  45   1 H      0.107  0.893  0.000  0.000     1.724     2.054
  46   1 H      0.056  0.944  0.000  0.000     2.247     2.344
  47   1 H      0.261  0.739  0.000  0.000     0.844     1.439
  48   1 H      0.232  0.768  0.000  0.000     0.957     1.532
  49   7 N     -0.172  1.245  3.926  0.000    24.713     7.383
  50   6 C      0.035  1.055  2.910  0.000    19.990     6.366
  51   6 C      0.270  1.042  2.687  0.000    22.437     7.757
  52   8 O     -0.490  1.744  4.746  0.000    23.556     6.507
  53   6 C     -0.061  1.056  3.005  0.000    21.668     6.625
  54   6 C     -0.083  1.060  3.023  0.000    22.089     6.692
  55   6 C      0.365  1.027  2.608  0.000    20.802     7.464
  56   8 O     -0.619  1.747  4.872  0.000    26.591     6.914
  57   8 O     -0.648  1.788  4.860  0.000    27.327     7.009
  58   1 H      0.195  0.805  0.000  0.000     1.131     1.666
  59   1 H      0.042  0.958  0.000  0.000     2.425     2.435
  60   1 H      0.068  0.932  0.000  0.000     2.112     2.273
  61   1 H      0.052  0.948  0.000  0.000     2.294     2.368
  62   1 H      0.000  1.000  0.000  0.000     3.058     2.734
  63   1 H      0.019  0.981  0.000  0.000     2.746     2.591
  64   7 N     -0.191  1.253  3.938  0.000    25.150     7.448
  65   6 C      0.022  1.067  2.911  0.000    20.216     6.404
  66   6 C      0.262  1.057  2.681  0.000    22.574     7.780
  67   8 O     -0.474  1.741  4.733  0.000    23.213     6.460
  68   6 C     -0.133  1.044  3.089  0.000    23.115     6.856
  69   1 H      0.227  0.773  0.000  0.000     0.980     1.551
  70   1 H      0.076  0.924  0.000  0.000     2.023     2.224
  71   1 H      0.085  0.915  0.000  0.000     1.933     2.174
  72   1 H      0.075  0.925  0.000  0.000     2.028     2.227
  73   1 H      0.080  0.920  0.000  0.000     1.974     2.197
  74   7 N     -0.184  1.249  3.936  0.000    24.998     7.426
  75   6 C      0.029  1.045  2.926  0.000    20.095     6.382
  76   6 C      0.275  1.046  2.679  0.000    22.355     7.743
  77   8 O     -0.492  1.744  4.748  0.000    23.610     6.515
  78   6 C     -0.085  1.061  3.024  0.000    22.093     6.688
  79   6 C     -0.023  1.062  2.961  0.000    20.950     6.510
  80   6 C     -0.125  1.043  3.082  0.000    22.925     6.822
  81   6 C     -0.134  1.044  3.090  0.000    23.132     6.858
  82   1 H      0.221  0.779  0.000  0.000     1.003     1.569
  83   1 H      0.096  0.904  0.000  0.000     1.824     2.112
  84   1 H      0.047  0.953  0.000  0.000     2.360     2.402
  85   1 H      0.066  0.934  0.000  0.000     2.129     2.282
  86   1 H      0.060  0.940  0.000  0.000     2.201     2.320
  87   1 H      0.062  0.938  0.000  0.000     2.176     2.307
  88   1 H      0.031  0.969  0.000  0.000     2.579     2.511
  89   1 H      0.054  0.946  0.000  0.000     2.266     2.354
  90   1 H      0.069  0.931  0.000  0.000     2.095     2.264
  91   1 H      0.052  0.948  0.000  0.000     2.300     2.372
  92   1 H      0.048  0.952  0.000  0.000     2.339     2.392
  93   7 N     -0.205  1.260  3.945  0.000    25.466     7.495
  94   6 C      0.030  1.065  2.906  0.000    20.083     6.382
  95   6 C      0.276  1.038  2.686  0.000    22.334     7.739
  96   8 O     -0.535  1.746  4.790  0.000    24.584     6.648
  97   6 C     -0.038  1.042  2.996  0.000    21.248     6.562
  98   6 C     -0.098  1.061  3.037  0.000    22.368     6.733
  99   6 C      0.364  1.023  2.613  0.000    20.828     7.469
 100   8 O     -0.655  1.799  4.856  0.000    27.512     7.032
 101   8 O     -0.620  1.756  4.863  0.000    26.610     6.916
 102   1 H      0.207  0.793  0.000  0.000     1.070     1.620
 103   1 H      0.071  0.929  0.000  0.000     2.078     2.254
 104   1 H      0.026  0.974  0.000  0.000     2.651     2.546
 105   1 H      0.031  0.969  0.000  0.000     2.571     2.508
 106   1 H      0.059  0.941  0.000  0.000     2.207     2.323
 107   1 H      0.063  0.937  0.000  0.000     2.159     2.298
 108   7 N     -0.176  1.257  3.919  0.000    24.815     7.399
 109   6 C      0.034  1.065  2.901  0.000    20.008     6.370
 110   6 C      0.272  1.050  2.679  0.000    22.411     7.752
 111   8 O     -0.520  1.753  4.767  0.000    24.232     6.600
 112   6 C     -0.087  1.068  3.018  0.000    22.156     6.702
 113   6 C     -0.010  1.064  2.946  0.000    20.725     6.476
 114   6 C     -0.121  1.039  3.083  0.000    22.878     6.820
 115   6 C     -0.126  1.043  3.083  0.000    22.974     6.835
 116   1 H      0.229  0.771  0.000  0.000     0.970     1.543
 117   1 H      0.061  0.939  0.000  0.000     2.189     2.314
 118   1 H      0.062  0.938  0.000  0.000     2.172     2.305
 119   1 H      0.063  0.937  0.000  0.000     2.163     2.300
 120   1 H      0.035  0.965  0.000  0.000     2.517     2.481
 121   1 H      0.053  0.947  0.000  0.000     2.281     2.362
 122   1 H      0.032  0.968  0.000  0.000     2.557     2.501
 123   1 H      0.039  0.961  0.000  0.000     2.468     2.457
 124   1 H      0.057  0.943  0.000  0.000     2.231     2.336
 125   1 H      0.058  0.942  0.000  0.000     2.221     2.331
 126   1 H      0.055  0.945  0.000  0.000     2.263     2.353
 127   7 N     -0.174  1.247  3.927  0.000    24.760     7.390
 128   6 C      0.017  1.069  2.914  0.000    20.298     6.417
 129   6 C      0.273  1.050  2.677  0.000    22.383     7.748
 130   8 O     -0.505  1.750  4.756  0.000    23.904     6.555
 131   6 C     -0.085  1.064  3.020  0.000    22.115     6.695
 132   6 C     -0.084  1.057  3.027  0.000    22.103     6.695
 133   6 C     -0.099  1.058  3.041  0.000    22.388     6.736
 134   6 C     -0.055  1.060  2.995  0.000    21.651     6.642
 135   7 N     -0.144  1.236  3.908  0.000    24.100     7.291
 136   1 H      0.218  0.782  0.000  0.000     1.017     1.580
 137   1 H      0.094  0.906  0.000  0.000     1.844     2.124
 138   1 H      0.082  0.918  0.000  0.000     1.954     2.186
 139   1 H      0.059  0.941  0.000  0.000     2.212     2.326
 140   1 H      0.053  0.947  0.000  0.000     2.287     2.365
 141   1 H      0.074  0.926  0.000  0.000     2.043     2.235
 142   1 H      0.086  0.914  0.000  0.000     1.916     2.164
 143   1 H      0.084  0.916  0.000  0.000     1.936     2.176
 144   1 H      0.134  0.866  0.000  0.000     1.506     1.919
 145   1 H      0.119  0.881  0.000  0.000     1.623     1.992
 146   1 H      0.309  0.691  0.000  0.000     0.687     1.299
 147   1 H      0.297  0.703  0.000  0.000     0.722     1.332
 148   1 H      0.287  0.713  0.000  0.000     0.752     1.359
 149   7 N     -0.183  1.246  3.937  0.000    24.959     7.420
 150   6 C      0.053  1.042  2.905  0.000    19.686     6.316
 151   6 C      0.277  1.044  2.678  0.000    22.310     7.737
 152   8 O     -0.532  1.755  4.777  0.000    24.498     6.636
 153   6 C     -0.093  1.057  3.036  0.000    22.244     6.710
 154   6 C      0.371  1.019  2.610  0.000    20.709     7.448
 155   8 O     -0.568  1.760  4.808  0.000    25.354     6.751
 156   8 O     -0.596  1.743  4.853  0.000    26.015     6.838
 157   1 H      0.212  0.788  0.000  0.000     1.046     1.602
 158   1 H      0.072  0.928  0.000  0.000     2.060     2.245
 159   1 H      0.038  0.962  0.000  0.000     2.471     2.458
 160   1 H      0.034  0.966  0.000  0.000     2.533     2.489
 161   7 N     -0.193  1.246  3.946  0.000    25.184     7.453
 162   6 C      0.051  1.048  2.901  0.000    19.715     6.322
 163   6 C      0.283  1.043  2.673  0.000    22.201     7.715
 164   8 O     -0.483  1.737  4.746  0.000    23.405     6.486
 165   6 C     -0.122  1.037  3.085  0.000    22.884     6.820
 166   1 H      0.216  0.784  0.000  0.000     1.026     1.587
 167   1 H      0.045  0.955  0.000  0.000     2.377     2.411
 168   1 H      0.092  0.908  0.000  0.000     1.860     2.132
 169   1 H      0.060  0.940  0.000  0.000     2.195     2.317
 170   1 H      0.054  0.946  0.000  0.000     2.267     2.355
 171   7 N     -0.171  1.248  3.923  0.000    24.690     7.380
 172   6 C      0.031  1.065  2.904  0.000    20.051     6.376
 173   6 C      0.208  1.077  2.714  0.000    23.583     7.953
 174   8 O     -0.353  1.754  4.600  0.000    20.774     6.111
 175   6 C     -0.073  1.050  3.023  0.000    21.884     6.660
 176   6 C     -0.101  1.053  3.048  0.000    22.422     6.739
 177   6 C      0.282  1.039  2.679  0.000    22.217     7.718
 178   8 O     -0.480  1.760  4.720  0.000    23.344     6.478
 179   7 N     -0.280  1.273  4.007  0.000    27.224     7.749
 180   1 H      0.210  0.790  0.000  0.000     1.058     1.611
 181   1 H      0.085  0.915  0.000  0.000     1.931     2.173
 182   1 H      0.080  0.920  0.000  0.000     1.976     2.198
 183   1 H      0.076  0.924  0.000  0.000     2.024     2.225
 184   1 H      0.058  0.942  0.000  0.000     2.227     2.334
 185   1 H      0.093  0.907  0.000  0.000     1.854     2.129
 186   1 H      0.220  0.780  0.000  0.000     1.008     1.573
 187   1 H      0.226  0.774  0.000  0.000     0.982     1.552
 188   8 O     -0.579  1.733  4.846  0.000    24.694     6.707
 189   1 H      0.313  0.687  0.000  0.000     0.682     1.298
 190   1 H      0.315  0.685  0.000  0.000     0.677     1.292
 191   8 O     -0.652  1.767  4.885  0.000    26.456     6.942
 192   1 H      0.323  0.677  0.000  0.000     0.654     1.271
 193   1 H      0.328  0.672  0.000  0.000     0.643     1.260
 194   8 O     -0.593  1.737  4.857  0.000    25.022     6.751
 195   1 H      0.273  0.727  0.000  0.000     0.809     1.412
 196   1 H      0.308  0.692  0.000  0.000     0.697     1.312
 197   8 O     -0.648  1.759  4.889  0.000    26.374     6.931
 198   1 H      0.318  0.682  0.000  0.000     0.669     1.285
 199   1 H      0.296  0.704  0.000  0.000     0.732     1.344
 200   8 O     -0.610  1.758  4.852  0.000    25.436     6.807
 201   1 H      0.284  0.716  0.000  0.000     0.772     1.380
 202   1 H      0.339  0.661  0.000  0.000     0.614     1.231
 203   8 O     -0.654  1.751  4.903  0.000    26.518     6.950
 204   1 H      0.295  0.705  0.000  0.000     0.735     1.347
 205   1 H      0.310  0.690  0.000  0.000     0.693     1.308
 206   8 O     -0.581  1.737  4.844  0.000    24.734     6.712
 207   1 H      0.278  0.722  0.000  0.000     0.791     1.397
 208   1 H      0.303  0.697  0.000  0.000     0.713     1.326
 209   8 O     -0.637  1.762  4.875  0.000    26.092     6.894
 210   1 H      0.317  0.683  0.000  0.000     0.671     1.287
 211   1 H      0.308  0.692  0.000  0.000     0.698     1.312
 212   8 O     -0.624  1.747  4.877  0.000    25.763     6.851
 213   1 H      0.298  0.702  0.000  0.000     0.728     1.340
 214   1 H      0.301  0.699  0.000  0.000     0.719     1.332
 215   8 O     -0.634  1.753  4.881  0.000    26.015     6.884
 216   1 H      0.301  0.699  0.000  0.000     0.717     1.330
 217   1 H      0.309  0.691  0.000  0.000     0.696     1.310
 218   7 N     -0.399  1.319  4.081  0.000    30.355     8.183
 219   6 C      0.034  1.057  2.910  0.000    20.023     6.374
 220   6 C      0.200  1.088  2.712  0.000    23.746     7.981
 221   8 O     -0.345  1.734  4.610  0.000    20.609     6.086
 222   6 C     -0.075  1.062  3.013  0.000    21.927     6.666
 223   6 C     -0.089  1.063  3.026  0.000    22.199     6.709
 224   6 C     -0.018  1.053  2.965  0.000    20.990     6.539
 225   7 N     -0.144  1.217  3.927  0.000    24.118     7.294
 226   6 C      0.237  1.022  2.740  0.000    23.033     7.858
 227   7 N     -0.237  1.245  3.992  0.000    26.204     7.603
 228   7 N     -0.260  1.235  4.024  0.000    26.736     7.679
 229   1 H      0.182  0.818  0.000  0.000     1.201     1.717
 230   1 H      0.053  0.947  0.000  0.000     2.281     2.362
 231   1 H      0.043  0.957  0.000  0.000     2.403     2.424
 232   1 H      0.060  0.940  0.000  0.000     2.204     2.321
 233   1 H      0.078  0.922  0.000  0.000     1.996     2.209
 234   1 H      0.066  0.934  0.000  0.000     2.131     2.283
 235   1 H      0.058  0.942  0.000  0.000     2.224     2.332
 236   1 H      0.074  0.926  0.000  0.000     2.041     2.234
 237   1 H      0.242  0.758  0.000  0.000     0.914     1.497
 238   1 H      0.225  0.775  0.000  0.000     0.986     1.555
 239   1 H      0.230  0.770  0.000  0.000     0.966     1.539
 240   1 H      0.267  0.733  0.000  0.000     0.820     1.418
 241   1 H      0.252  0.748  0.000  0.000     0.874     1.464
 242   7 N     -0.395  1.315  4.080  0.000    30.228     8.166
 243   6 C      0.039  1.057  2.904  0.000    19.945     6.363
 244   6 C      0.196  1.098  2.706  0.000    23.811     7.991
 245   8 O     -0.393  1.771  4.621  0.000    21.540     6.222
 246   6 C     -0.085  1.067  3.019  0.000    22.125     6.697
 247   6 C     -0.086  1.062  3.024  0.000    22.137     6.699
 248   6 C     -0.039  1.070  2.968  0.000    21.352     6.595
 249   7 N     -0.155  1.222  3.933  0.000    24.342     7.328
 250   6 C      0.233  1.014  2.753  0.000    23.113     7.871
 251   7 N     -0.262  1.234  4.028  0.000    26.793     7.688
 252   7 N     -0.277  1.246  4.031  0.000    27.171     7.742
 253   1 H      0.174  0.826  0.000  0.000     1.247     1.749
 254   1 H      0.059  0.941  0.000  0.000     2.215     2.328
 255   1 H      0.079  0.921  0.000  0.000     1.987     2.204
 256   1 H      0.068  0.932  0.000  0.000     2.110     2.272
 257   1 H      0.064  0.936  0.000  0.000     2.148     2.292
 258   1 H      0.078  0.922  0.000  0.000     1.997     2.210
 259   1 H      0.105  0.895  0.000  0.000     1.742     2.064
 260   1 H      0.074  0.926  0.000  0.000     2.044     2.236
 261   1 H      0.230  0.770  0.000  0.000     0.964     1.538
 262   1 H      0.236  0.764  0.000  0.000     0.940     1.519
 263   1 H      0.222  0.778  0.000  0.000     1.000     1.567
 264   1 H      0.234  0.766  0.000  0.000     0.947     1.524
 265   1 H      0.244  0.756  0.000  0.000     0.909     1.493
 266   7 N     -0.382  1.309  4.073  0.000    29.874     8.118
 267   6 C      0.045  1.053  2.901  0.000    19.835     6.345
 268   6 C      0.184  1.094  2.722  0.000    24.047     8.032
 269   8 O     -0.372  1.752  4.620  0.000    21.130     6.163
 270   6 C     -0.055  1.056  2.999  0.000    21.550     6.607
 271   6 C     -0.081  1.060  3.021  0.000    22.053     6.686
 272   6 C      0.362  1.029  2.610  0.000    20.864     7.475
 273   8 O     -0.620  1.758  4.862  0.000    26.611     6.916
 274   8 O     -0.618  1.763  4.856  0.000    26.576     6.912
 275   1 H      0.175  0.825  0.000  0.000     1.241     1.745
 276   1 H      0.014  0.986  0.000  0.000     2.827     2.630
 277   1 H      0.064  0.936  0.000  0.000     2.151     2.293
 278   1 H      0.041  0.959  0.000  0.000     2.438     2.442
 279   1 H     -0.003  1.003  0.000  0.000     3.109     2.757
 280   1 H      0.022  0.978  0.000  0.000     2.709     2.574
 281   7 N     -0.387  1.314  4.072  0.000    30.003     8.135
 282   6 C      0.029  1.065  2.905  0.000    20.097     6.385
 283   6 C      0.267  1.043  2.689  0.000    22.484     7.765
 284   8 O     -0.526  1.743  4.782  0.000    24.360     6.617
 285   6 C     -0.033  1.044  2.989  0.000    21.161     6.549
 286   6 C     -0.078  1.060  3.018  0.000    21.995     6.677
 287   6 C      0.368  1.025  2.607  0.000    20.768     7.458
 288   8 O     -0.661  1.783  4.879  0.000    27.680     7.054
 289   8 O     -0.679  1.782  4.897  0.000    28.134     7.111
 290   1 H      0.145  0.855  0.000  0.000     1.438     1.879
 291   1 H      0.041  0.959  0.000  0.000     2.442     2.444
 292   1 H      0.026  0.974  0.000  0.000     2.647     2.544
 293   1 H      0.006  0.994  0.000  0.000     2.951     2.686
 294   1 H      0.023  0.977  0.000  0.000     2.685     2.563
 295   1 H      0.032  0.968  0.000  0.000     2.558     2.501
 296   7 N     -0.160  1.252  3.909  0.000    24.471     7.347
 297   6 C      0.032  1.064  2.904  0.000    20.039     6.375
 298   6 C      0.199  1.093  2.708  0.000    23.752     7.981
 299   8 O     -0.359  1.752  4.607  0.000    20.876     6.126
 300   6 C     -0.087  1.071  3.016  0.000    22.166     6.704
 301   6 C     -0.013  1.066  2.947  0.000    20.787     6.486
 302   6 C     -0.122  1.039  3.083  0.000    22.890     6.822
 303   6 C     -0.127  1.043  3.084  0.000    22.994     6.838
 304   1 H      0.234  0.766  0.000  0.000     0.947     1.524
 305   1 H      0.078  0.922  0.000  0.000     1.997     2.210
 306   1 H      0.071  0.929  0.000  0.000     2.076     2.253
 307   1 H      0.070  0.930  0.000  0.000     2.082     2.257
 308   1 H      0.039  0.961  0.000  0.000     2.460     2.453
 309   1 H      0.052  0.948  0.000  0.000     2.299     2.371
 310   1 H      0.040  0.960  0.000  0.000     2.448     2.446
 311   1 H      0.033  0.967  0.000  0.000     2.540     2.492
 312   1 H      0.057  0.943  0.000  0.000     2.239     2.340
 313   1 H      0.059  0.941  0.000  0.000     2.212     2.326
 314   1 H      0.054  0.946  0.000  0.000     2.272     2.357
 315   7 N     -0.400  1.303  4.097  0.000    30.360     8.183
 316   6 C      0.039  1.052  2.909  0.000    19.929     6.359
 317   6 C      0.268  1.052  2.680  0.000    22.466     7.761
 318   8 O     -0.492  1.738  4.754  0.000    23.610     6.515
 319   6 C     -0.115  1.038  3.078  0.000    22.760     6.802
 320   1 H      0.169  0.831  0.000  0.000     1.276     1.770
 321   1 H      0.033  0.967  0.000  0.000     2.548     2.496
 322   1 H      0.065  0.935  0.000  0.000     2.144     2.290
 323   1 H      0.039  0.961  0.000  0.000     2.461     2.453
 324   1 H      0.051  0.949  0.000  0.000     2.307     2.375
 325   7 N     -0.168  1.251  3.917  0.000    24.629     7.371
 326   6 C      0.022  1.066  2.912  0.000    20.211     6.401
 327   6 C      0.204  1.079  2.717  0.000    23.663     7.967
 328   8 O     -0.358  1.756  4.602  0.000    20.861     6.124
 329   6 C     -0.074  1.050  3.024  0.000    21.908     6.663
 330   6 C     -0.107  1.055  3.051  0.000    22.524     6.755
 331   6 C      0.282  1.039  2.679  0.000    22.225     7.719
 332   8 O     -0.486  1.762  4.723  0.000    23.467     6.495
 333   7 N     -0.287  1.277  4.011  0.000    27.419     7.777
 334   1 H      0.228  0.772  0.000  0.000     0.974     1.546
 335   1 H      0.091  0.909  0.000  0.000     1.873     2.140
 336   1 H      0.078  0.922  0.000  0.000     2.002     2.213
 337   1 H      0.071  0.929  0.000  0.000     2.075     2.253
 338   1 H      0.065  0.935  0.000  0.000     2.136     2.285
 339   1 H      0.098  0.902  0.000  0.000     1.803     2.100
 340   1 H      0.226  0.774  0.000  0.000     0.982     1.553
 341   1 H      0.226  0.774  0.000  0.000     0.983     1.553
 342   7 N     -0.401  1.324  4.077  0.000    30.410     8.190
 343   6 C      0.023  1.064  2.914  0.000    20.211     6.405
 344   6 C      0.253  1.064  2.683  0.000    22.750     7.810
 345   8 O     -0.489  1.757  4.732  0.000    23.540     6.505
 346   6 C     -0.132  1.046  3.086  0.000    23.094     6.853
 347   1 H      0.181  0.819  0.000  0.000     1.206     1.720
 348   1 H      0.050  0.950  0.000  0.000     2.318     2.381
 349   1 H      0.038  0.962  0.000  0.000     2.472     2.459
 350   1 H      0.078  0.922  0.000  0.000     1.995     2.209
 351   1 H      0.060  0.940  0.000  0.000     2.202     2.320
 352   7 N     -0.174  1.244  3.929  0.000    24.759     7.390
 353   6 C      0.031  1.042  2.927  0.000    20.053     6.376
 354   6 C      0.203  1.077  2.720  0.000    23.686     7.971
 355   8 O     -0.384  1.766  4.618  0.000    21.361     6.197
 356   6 C     -0.079  1.062  3.017  0.000    21.990     6.672
 357   6 C     -0.015  1.062  2.954  0.000    20.815     6.490
 358   6 C     -0.120  1.041  3.079  0.000    22.835     6.809
 359   6 C     -0.106  1.036  3.070  0.000    22.582     6.776
 360   1 H      0.228  0.772  0.000  0.000     0.973     1.545
 361   1 H      0.077  0.923  0.000  0.000     2.006     2.215
 362   1 H      0.075  0.925  0.000  0.000     2.036     2.231
 363   1 H      0.055  0.945  0.000  0.000     2.257     2.350
 364   1 H      0.060  0.940  0.000  0.000     2.204     2.322
 365   1 H      0.046  0.954  0.000  0.000     2.366     2.405
 366   1 H      0.060  0.940  0.000  0.000     2.202     2.320
 367   1 H      0.036  0.964  0.000  0.000     2.507     2.476
 368   1 H      0.030  0.970  0.000  0.000     2.586     2.515
 369   1 H      0.026  0.974  0.000  0.000     2.640     2.541
 370   1 H      0.037  0.963  0.000  0.000     2.487     2.466
 371   7 N     -0.400  1.332  4.068  0.000    30.385     8.187
 372   6 C      0.034  1.062  2.904  0.000    20.020     6.374
 373   6 C      0.263  1.059  2.678  0.000    22.558     7.777
 374   8 O     -0.536  1.764  4.772  0.000    24.589     6.648
 375   6 C     -0.087  1.073  3.014  0.000    22.160     6.703
 376   6 C     -0.015  1.063  2.952  0.000    20.809     6.489
 377   6 C     -0.120  1.039  3.081  0.000    22.865     6.818
 378   6 C     -0.123  1.041  3.081  0.000    22.913     6.826
 379   1 H      0.166  0.834  0.000  0.000     1.294     1.782
 380   1 H      0.039  0.961  0.000  0.000     2.457     2.451
 381   1 H      0.068  0.932  0.000  0.000     2.104     2.268
 382   1 H      0.060  0.940  0.000  0.000     2.194     2.316
 383   1 H      0.020  0.980  0.000  0.000     2.740     2.589
 384   1 H      0.034  0.966  0.000  0.000     2.536     2.491
 385   1 H      0.034  0.966  0.000  0.000     2.528     2.486
 386   1 H      0.056  0.944  0.000  0.000     2.252     2.347
 387   1 H      0.031  0.969  0.000  0.000     2.579     2.511
 388   1 H      0.061  0.939  0.000  0.000     2.189     2.313
 389   1 H      0.049  0.951  0.000  0.000     2.330     2.387
 390   7 N     -0.160  1.243  3.917  0.000    24.458     7.345
 391   6 C      0.021  1.065  2.914  0.000    20.238     6.407
 392   6 C      0.206  1.091  2.703  0.000    23.635     7.962
 393   8 O     -0.374  1.761  4.613  0.000    21.176     6.170
 394   6 C     -0.081  1.066  3.015  0.000    22.042     6.684
 395   6 C     -0.084  1.057  3.027  0.000    22.108     6.695
 396   6 C     -0.092  1.056  3.036  0.000    22.249     6.715
 397   6 C     -0.035  1.055  2.980  0.000    21.297     6.588
 398   7 N     -0.134  1.234  3.900  0.000    23.892     7.260
 399   1 H      0.230  0.770  0.000  0.000     0.967     1.540
 400   1 H      0.099  0.901  0.000  0.000     1.799     2.097
 401   1 H      0.080  0.920  0.000  0.000     1.978     2.199
 402   1 H      0.075  0.925  0.000  0.000     2.027     2.227
 403   1 H      0.059  0.941  0.000  0.000     2.207     2.323
 404   1 H      0.063  0.937  0.000  0.000     2.163     2.300
 405   1 H      0.072  0.928  0.000  0.000     2.066     2.248
 406   1 H      0.089  0.911  0.000  0.000     1.889     2.149
 407   1 H      0.093  0.907  0.000  0.000     1.850     2.127
 408   1 H      0.118  0.882  0.000  0.000     1.628     1.996
 409   1 H      0.286  0.714  0.000  0.000     0.758     1.364
 410   1 H      0.292  0.708  0.000  0.000     0.739     1.347
 411   1 H      0.262  0.738  0.000  0.000     0.838     1.434
 412   7 N     -0.392  1.318  4.074  0.000    30.152     8.155
 413   6 C      0.036  1.062  2.902  0.000    19.980     6.366
 414   6 C      0.212  1.083  2.706  0.000    23.520     7.943
 415   8 O     -0.375  1.751  4.625  0.000    21.196     6.173
 416   6 C     -0.067  1.049  3.018  0.000    21.779     6.644
 417   6 C     -0.093  1.053  3.039  0.000    22.257     6.714
 418   6 C      0.289  1.041  2.670  0.000    22.107     7.699
 419   8 O     -0.520  1.754  4.766  0.000    24.223     6.599
 420   7 N     -0.280  1.274  4.005  0.000    27.225     7.749
 421   1 H      0.162  0.838  0.000  0.000     1.321     1.800
 422   1 H      0.055  0.945  0.000  0.000     2.257     2.350
 423   1 H      0.078  0.922  0.000  0.000     2.002     2.213
 424   1 H      0.027  0.973  0.000  0.000     2.630     2.536
 425   1 H      0.056  0.944  0.000  0.000     2.252     2.347
 426   1 H      0.092  0.908  0.000  0.000     1.858     2.131
 427   1 H      0.210  0.790  0.000  0.000     1.058     1.612
 428   1 H      0.231  0.769  0.000  0.000     0.959     1.534
 429   7 N     -0.387  1.312  4.075  0.000    30.006     8.135
 430   6 C      0.026  1.062  2.912  0.000    20.158     6.396
 431   6 C      0.195  1.105  2.701  0.000    23.839     7.996
 432   8 O     -0.398  1.758  4.641  0.000    21.647     6.238
 433   6 C     -0.080  1.071  3.009  0.000    22.021     6.681
 434   6 C     -0.079  1.057  3.022  0.000    22.005     6.680
 435   6 C     -0.090  1.059  3.031  0.000    22.214     6.710
 436   6 C     -0.019  1.049  2.971  0.000    21.015     6.544
 437   7 N     -0.178  1.250  3.929  0.000    24.850     7.404
 438   1 H      0.175  0.825  0.000  0.000     1.241     1.745
 439   1 H      0.068  0.932  0.000  0.000     2.103     2.268
 440   1 H      0.067  0.933  0.000  0.000     2.122     2.278
 441   1 H      0.068  0.932  0.000  0.000     2.109     2.271
 442   1 H      0.031  0.969  0.000  0.000     2.571     2.507
 443   1 H      0.070  0.930  0.000  0.000     2.088     2.259
 444   1 H      0.065  0.935  0.000  0.000     2.141     2.288
 445   1 H      0.085  0.915  0.000  0.000     1.924     2.169
 446   1 H      0.092  0.908  0.000  0.000     1.855     2.130
 447   1 H      0.090  0.910  0.000  0.000     1.883     2.146
 448   1 H      0.267  0.733  0.000  0.000     0.821     1.420
 449   1 H      0.302  0.698  0.000  0.000     0.707     1.317
 450   1 H      0.236  0.764  0.000  0.000     0.940     1.519
 451   7 N     -0.403  1.325  4.077  0.000    30.452     8.196
 452   6 C      0.021  1.069  2.910  0.000    20.213     6.400
 453   6 C      0.282  1.033  2.685  0.000    22.217     7.718
 454   8 O     -0.491  1.745  4.746  0.000    23.585     6.511
 455   6 C     -0.072  1.049  3.022  0.000    21.868     6.657
 456   6 C     -0.091  1.055  3.036  0.000    22.213     6.708
 457   6 C      0.285  1.041  2.674  0.000    22.164     7.708
 458   8 O     -0.514  1.754  4.759  0.000    24.087     6.580
 459   7 N     -0.277  1.273  4.003  0.000    27.154     7.739
 460   1 H      0.153  0.847  0.000  0.000     1.378     1.839
 461   1 H      0.050  0.950  0.000  0.000     2.323     2.384
 462   1 H      0.068  0.932  0.000  0.000     2.111     2.272
 463   1 H      0.024  0.976  0.000  0.000     2.676     2.558
 464   1 H      0.064  0.936  0.000  0.000     2.156     2.296
 465   1 H      0.072  0.928  0.000  0.000     2.068     2.249
 466   1 H      0.207  0.793  0.000  0.000     1.070     1.620
 467   1 H      0.234  0.766  0.000  0.000     0.946     1.524
 468   7 N     -0.184  1.250  3.934  0.000    24.990     7.425
 469   6 C      0.024  1.067  2.909  0.000    20.197     6.402
 470   6 C      0.273  1.052  2.675  0.000    22.379     7.747
 471   8 O     -0.488  1.758  4.730  0.000    23.529     6.504
 472   6 C     -0.112  1.034  3.078  0.000    22.692     6.793
 473   1 H      0.223  0.777  0.000  0.000     0.994     1.562
 474   1 H      0.062  0.938  0.000  0.000     2.180     2.309
 475   1 H      0.052  0.948  0.000  0.000     2.294     2.368
 476   1 H      0.070  0.930  0.000  0.000     2.085     2.258
 477   1 H      0.067  0.933  0.000  0.000     2.113     2.273
 478   7 N     -0.175  1.246  3.929  0.000    24.790     7.395
 479   6 C     -0.017  1.053  2.964  0.000    20.947     6.528
 480   6 C      0.357  1.021  2.621  0.000    20.938     7.488
 481   8 O     -0.605  1.766  4.839  0.000    26.240     6.868
 482   8 O     -0.557  1.752  4.806  0.000    25.086     6.715
 483   1 H      0.199  0.801  0.000  0.000     1.110     1.650
 484   1 H      0.043  0.957  0.000  0.000     2.415     2.430
 485   1 H      0.049  0.951  0.000  0.000     2.331     2.387
 486   1 H      0.164  0.836  0.000  0.000     1.308     1.791
 487   1 H      0.082  0.918  0.000  0.000     1.962     2.190
 488   1 H      0.169  0.831  0.000  0.000     1.280     1.772
 489   1 H      0.083  0.917  0.000  0.000     1.944     2.180
 490   1 H      0.186  0.814  0.000  0.000     1.182     1.703
 491   1 H      0.076  0.924  0.000  0.000     2.023     2.224
 492   1 H      0.167  0.833  0.000  0.000     1.288     1.777
 493   1 H      0.095  0.905  0.000  0.000     1.826     2.113
 494   1 H      0.190  0.810  0.000  0.000     1.156     1.684
 495   1 H      0.089  0.911  0.000  0.000     1.892     2.151
 496   1 H      0.171  0.829  0.000  0.000     1.267     1.763
 497   1 H      0.084  0.916  0.000  0.000     1.941     2.178
 498   1 H      0.187  0.813  0.000  0.000     1.176     1.698
 499   1 H      0.082  0.918  0.000  0.000     1.953     2.185
 500   1 H      0.181  0.819  0.000  0.000     1.209     1.723
 501   1 H      0.079  0.921  0.000  0.000     1.984     2.203
 502   1 H      0.185  0.815  0.000  0.000     1.187     1.706
 503   1 H      0.069  0.931  0.000  0.000     2.101     2.266
 504   1 H      0.184  0.816  0.000  0.000     1.193     1.711
 505   1 H      0.097  0.903  0.000  0.000     1.809     2.103
 506   1 H      0.187  0.813  0.000  0.000     1.176     1.699

 Mol. C6AA /au·bohr⁶  :    2200843.240203
 Mol. C8AA /au·bohr⁸  :   47703068.137946
 Mol. α(0) /au        :       2200.728845

 
 Wiberg/Mayer (AO) data. WBOs > 0.1 written file <wbo>
 largest (>0.05) Wiberg bond orders for each atom
           total WBO             WBO to atom ...
     1  N   2.981    C    2 1.003    H  486 0.963    H   10 0.953
     2  C   3.982    N    1 1.003    H   11 0.968    C    5 0.967    C    3 0.946
     3  C   3.950    O    4 1.600    N   16 1.317    C    2 0.946
     4  O   1.943    C    3 1.600    N   16 0.190
     5  C   3.993    C    6 1.013    H   13 0.976    H   12 0.973    C    2 0.967
     6  C   3.985    C    5 1.013    H   14 0.969    H   15 0.964    C    7 0.915    O    8 0.053    O    9 0.052
     7  C   3.936    O    8 1.518    O    9 1.477    C    6 0.915
     8  O   1.808    C    7 1.518    O    9 0.216    C    6 0.053
     9  O   1.768    C    7 1.477    O    8 0.216    C    6 0.052
    10  H   0.971    N    1 0.953
    11  H   0.999    C    2 0.968
    12  H   0.999    C    5 0.973
    13  H   0.998    C    5 0.976
    14  H   0.999    C    6 0.969
    15  H   1.000    C    6 0.964
    16  N   3.484    C    3 1.317    C   17 0.986    H   24 0.913    O    4 0.190
    17  C   3.952    N   16 0.986    C   20 0.968    H   25 0.941    C   18 0.936
    18  C   3.943    O   19 1.628    N   35 1.292    C   17 0.936
    19  O   1.962    C   18 1.628    N   35 0.187
    20  C   3.979    C   21 0.988    H   26 0.971    H   27 0.969    C   17 0.968
    21  C   3.994    C   23 1.011    C   22 1.010    C   20 0.988    H   28 0.966
    22  C   3.992    C   21 1.010    H   30 0.985    H   29 0.983    H   31 0.983
    23  C   3.993    C   21 1.011    H   33 0.983    H   32 0.983    H   34 0.978
    24  H   0.952    N   16 0.913
    25  H   0.990    C   17 0.941
[...]
   155  O   1.875    C  154 1.578    O  156 0.205    C  153 0.053
   156  O   1.877    C  154 1.401    O  155 0.205    H  193 0.076    H  265 0.071
   157  H   0.955    N  149 0.902
   158  H   0.994    C  150 0.944
   159  H   0.999    C  153 0.963
   160  H   0.998    C  153 0.958
   161  N   3.463    C  151 1.304    C  162 0.980    H  166 0.899    O  152 0.187
   162  C   3.966    C  165 0.998    N  161 0.980    H  167 0.942    C  163 0.930
   163  C   3.946    O  164 1.610    N  171 1.317    C  162 0.930
   164  O   1.973    C  163 1.610    N  171 0.187
   165  C   3.983    C  162 0.998    H  170 0.980    H  169 0.977    H  168 0.969
   166  H   0.953    N  161 0.899
   167  H   0.997    C  162 0.942
   168  H   0.991    C  165 0.969
   169  H   0.996    C  165 0.977
   170  H   0.997    C  165 0.980
   171  N   3.477    C  163 1.317    C  172 0.942    H  180 0.917    O  164 0.187
   172  C   3.953    C  175 0.980    C  173 0.973    H  181 0.951    N  171 0.942    O  174 0.052
   173  C   3.898    O  174 1.912    C  172 0.973    H  487 0.951
   174  O   2.048    C  173 1.912    C  172 0.052
   175  C   3.985    C  176 0.999    C  172 0.980    H  182 0.969    H  183 0.969
   176  C   3.990    C  175 0.999    C  177 0.976    H  184 0.968    H  185 0.937    O  178 0.050
   177  C   3.948    O  178 1.644    N  179 1.293    C  176 0.976
   178  O   1.970    C  177 1.644    N  179 0.192    C  176 0.050
   179  N   3.378    C  177 1.293    H  186 0.926    H  187 0.911    O  178 0.192
   180  H   0.956    N  171 0.917
   181  H   0.993    C  172 0.951
   182  H   0.993    C  175 0.969
   183  H   0.993    C  175 0.969
   184  H   0.997    C  176 0.968
   185  H   0.991    C  176 0.937
   186  H   0.951    N  179 0.926
   187  H   0.949    N  179 0.911
   188  O   1.924    H  190 0.877    H  189 0.849    H   47 0.071
   189  H   0.902    O  188 0.849
   190  H   0.901    O  188 0.877
   191  O   1.857    H  192 0.892    H  193 0.808
   192  H   0.895    O  191 0.892
   193  H   0.892    O  191 0.808    O  156 0.076
   194  O   1.825    H  195 0.923    H  196 0.887
   195  H   0.926    O  194 0.923
   196  H   0.905    O  194 0.887
   197  O   1.805    H  199 0.895    H  198 0.845
   198  H   0.899    O  197 0.845    O  200 0.051
   199  H   0.912    O  197 0.895
   200  O   1.864    H  201 0.915    H  202 0.849    H  198 0.051
   201  H   0.920    O  200 0.915
   202  H   0.885    O  200 0.849
   203  O   1.784    H  204 0.912    H  205 0.836
   204  H   0.913    O  203 0.912
   205  H   0.904    O  203 0.836    O  101 0.065
   206  O   1.832    H  207 0.921    H  208 0.907
   207  H   0.923    O  206 0.921
   208  H   0.908    O  206 0.907
   209  O   1.797    H  211 0.904    H  210 0.877
   210  H   0.899    O  209 0.877
   211  H   0.905    O  209 0.904
   212  O   1.830    H  213 0.891    H  214 0.854
   213  H   0.911    O  212 0.891
   214  H   0.909    O  212 0.854
   215  O   1.823    H  216 0.893    H  217 0.849
   216  H   0.909    O  215 0.893
   217  H   0.905    O  215 0.849
   218  N   2.984    C  219 1.005    H  488 0.958    H  229 0.920
   219  C   3.986    N  218 1.005    C  220 0.989    H  230 0.967    C  222 0.952    O  221 0.053
   220  C   3.899    O  221 1.892    C  219 0.989    H  489 0.952
   221  O   2.060    C  220 1.892    C  219 0.053
   222  C   3.990    C  223 1.005    H  232 0.974    H  231 0.974    C  219 0.952
   223  C   3.988    C  222 1.005    C  224 0.998    H  233 0.975    H  234 0.975
   224  C   3.957    C  223 0.998    N  225 0.985    H  236 0.966    H  235 0.964
   225  N   3.461    C  226 1.316    C  224 0.985    H  237 0.909    N  228 0.102    N  227 0.095
   226  C   3.975    N  225 1.316    N  228 1.316    N  227 1.309
   227  N   3.386    C  226 1.309    H  239 0.925    H  238 0.915    N  228 0.097    N  225 0.095
   228  N   3.381    C  226 1.316    H  241 0.917    H  240 0.909    N  225 0.102    N  227 0.097
   229  H   0.967    N  218 0.920
   230  H   0.997    C  219 0.967
   231  H   0.998    C  222 0.974
   232  H   0.996    C  222 0.974
   233  H   0.994    C  223 0.975
   234  H   0.996    C  223 0.975
   235  H   0.997    C  224 0.964
   236  H   0.995    C  224 0.966
   237  H   0.941    N  225 0.909
   238  H   0.949    N  227 0.915
   239  H   0.947    N  227 0.925
   240  H   0.929    N  228 0.909
   241  H   0.936    N  228 0.917
   242  N   2.991    C  243 1.012    H  490 0.955    H  253 0.951
   243  C   3.984    N  242 1.012    C  244 0.982    C  246 0.960    H  254 0.957    O  245 0.055
   244  C   3.886    O  245 1.879    C  243 0.982    H  491 0.956
   245  O   2.015    C  244 1.879    C  243 0.055
   246  C   3.986    C  247 1.002    H  256 0.974    H  255 0.966    C  243 0.960
   247  C   3.987    C  248 1.005    C  246 1.002    H  257 0.975    H  258 0.970
   248  C   3.947    C  247 1.005    N  249 0.967    H  260 0.963    H  259 0.956
   249  N   3.444    C  250 1.306    C  248 0.967    H  261 0.911    N  252 0.104    N  251 0.098
   250  C   3.977    N  252 1.325    N  251 1.317    N  249 1.306
   251  N   3.396    C  250 1.317    H  262 0.906    H  263 0.888    N  252 0.105    N  249 0.098
   252  N   3.389    C  250 1.325    H  264 0.923    H  265 0.849    N  251 0.105    N  249 0.104
   253  H   0.970    N  242 0.951
   254  H   0.997    C  243 0.957
   255  H   0.994    C  246 0.966
   256  H   0.995    C  246 0.974
   257  H   0.995    C  247 0.975
   258  H   0.994    C  247 0.970
   259  H   0.989    C  248 0.956
   260  H   0.994    C  248 0.963
   261  H   0.947    N  249 0.911
   262  H   0.944    N  251 0.906
   263  H   0.951    N  251 0.888
   264  H   0.945    N  252 0.923
   265  H   0.940    N  252 0.849    O  156 0.071
   266  N   2.996    C  267 1.018    H  492 0.962    H  275 0.950
   267  C   3.986    N  266 1.018    C  268 0.989    H  276 0.958    C  270 0.940    O  269 0.058
   268  C   3.893    O  269 1.862    C  267 0.989    H  493 0.949
   269  O   2.040    C  268 1.862    C  267 0.058
   270  C   3.990    C  271 1.009    H  277 0.972    H  278 0.971    C  267 0.940
   271  C   3.983    C  270 1.009    H  279 0.973    H  280 0.965    C  272 0.907    O  273 0.052
   272  C   3.939    O  274 1.514    O  273 1.488    C  271 0.907
   273  O   1.807    C  272 1.488    O  274 0.216    C  271 0.052
   274  O   1.811    C  272 1.514    O  273 0.216
   275  H   0.969    N  266 0.950
   276  H   1.000    C  267 0.958
   277  H   0.996    C  270 0.972
   278  H   0.998    C  270 0.971
   279  H   1.000    C  271 0.973
   280  H   0.999    C  271 0.965
   281  N   2.988    C  282 1.006    H  290 0.961    H  494 0.955
   282  C   3.984    N  281 1.006    C  285 0.977    H  291 0.962    C  283 0.947
   283  C   3.954    O  284 1.567    N  296 1.368    C  282 0.947
   284  O   1.899    C  283 1.567    N  296 0.197
   285  C   3.995    C  286 1.008    C  282 0.977    H  293 0.976    H  292 0.974
   286  C   3.996    C  285 1.008    H  294 0.971    H  295 0.961    C  287 0.946
   287  C   3.931    O  288 1.498    O  289 1.464    C  286 0.946
   288  O   1.783    C  287 1.498    O  289 0.214
   289  O   1.746    C  287 1.464    O  288 0.214
   290  H   0.979    N  281 0.961
   291  H   0.998    C  282 0.962
   292  H   0.999    C  285 0.974
   293  H   1.000    C  285 0.976
   294  H   0.999    C  286 0.971
   295  H   0.999    C  286 0.961
   296  N   3.498    C  283 1.368    C  297 0.952    H  304 0.889    O  284 0.197
   297  C   3.955    C  298 0.990    C  300 0.964    N  296 0.952    H  305 0.948    O  299 0.051
   298  C   3.902    O  299 1.877    C  297 0.990    H  495 0.954
   299  O   2.033    C  298 1.877    C  297 0.051
   300  C   3.974    C  301 0.976    H  307 0.971    H  306 0.970    C  297 0.964
   301  C   3.989    C  302 1.012    C  303 1.011    C  300 0.976    H  308 0.968
   302  C   3.994    C  301 1.012    H  311 0.983    H  310 0.981    H  309 0.977
   303  C   3.992    C  301 1.011    H  314 0.981    H  313 0.980    H  312 0.978
   304  H   0.945    N  296 0.889
   305  H   0.994    C  297 0.948
   306  H   0.995    C  300 0.970
   307  H   0.995    C  300 0.971
   308  H   0.998    C  301 0.968
   309  H   0.997    C  302 0.977
   310  H   0.998    C  302 0.981
   311  H   0.999    C  302 0.983
   312  H   0.996    C  303 0.978
   313  H   0.996    C  303 0.980
   314  H   0.997    C  303 0.981
   315  N   2.997    C  316 1.019    H  496 0.959    H  320 0.936
   316  C   3.987    N  315 1.019    C  319 0.996    H  321 0.957    C  317 0.931
   317  C   3.942    O  318 1.603    N  325 1.319    C  316 0.931
   318  O   1.963    C  317 1.603    N  325 0.187
   319  C   3.992    C  316 0.996    H  323 0.982    H  324 0.980    H  322 0.978
   320  H   0.971    N  315 0.936
   321  H   0.998    C  316 0.957
   322  H   0.996    C  319 0.978
   323  H   0.998    C  319 0.982
   324  H   0.997    C  319 0.980
   325  N   3.480    C  317 1.319    C  326 0.947    H  334 0.912    O  318 0.187
   326  C   3.959    C  329 0.980    C  327 0.975    H  335 0.950    N  325 0.947    O  328 0.052
   327  C   3.899    O  328 1.908    C  326 0.975    H  497 0.950
   328  O   2.046    C  327 1.908    C  326 0.052
   329  C   3.987    C  330 0.999    C  326 0.980    H  337 0.969    H  336 0.969
   330  C   3.990    C  329 0.999    C  331 0.975    H  338 0.967    H  339 0.936    O  332 0.050
   331  C   3.945    O  332 1.641    N  333 1.296    C  330 0.975
   332  O   1.967    C  331 1.641    N  333 0.192    C  330 0.050
   333  N   3.377    C  331 1.296    H  340 0.928    H  341 0.916    O  332 0.192
   334  H   0.948    N  325 0.912
   335  H   0.992    C  326 0.950
   336  H   0.994    C  329 0.969
   337  H   0.994    C  329 0.969
   338  H   0.996    C  330 0.967
   339  H   0.990    C  330 0.936
   340  H   0.949    N  333 0.928
   341  H   0.949    N  333 0.916
   342  N   2.989    C  343 1.014    H  498 0.956    H  347 0.950
   343  C   3.984    N  342 1.014    C  346 0.992    H  348 0.961    C  344 0.937
   344  C   3.932    O  345 1.638    N  352 1.274    C  343 0.937
   345  O   1.978    C  344 1.638    N  352 0.194
   346  C   3.989    C  343 0.992    H  351 0.984    H  349 0.984    H  350 0.973
   347  H   0.967    N  342 0.950
   348  H   0.997    C  343 0.961
   349  H   0.999    C  346 0.984
   350  H   0.993    C  346 0.973
   351  H   0.996    C  346 0.984
   352  N   3.456    C  344 1.274    C  353 0.986    H  360 0.915    O  345 0.194
   353  C   3.975    C  354 0.994    N  352 0.986    C  356 0.969    H  361 0.931    O  355 0.051
   354  C   3.902    O  355 1.875    C  353 0.994    H  499 0.950
   355  O   2.020    C  354 1.875    C  353 0.051
   356  C   3.983    C  357 0.979    H  363 0.970    C  353 0.969    H  362 0.967
   357  C   3.992    C  358 1.012    C  359 1.010    C  356 0.979    H  364 0.965
   358  C   3.992    C  357 1.012    H  367 0.985    H  366 0.982    H  365 0.981
   359  C   3.994    C  357 1.010    H  369 0.986    H  368 0.981    H  370 0.980
   360  H   0.948    N  352 0.915
   361  H   0.994    C  353 0.931
   362  H   0.994    C  356 0.967
   363  H   0.996    C  356 0.970
   364  H   0.996    C  357 0.965
   365  H   0.996    C  358 0.981
   366  H   0.996    C  358 0.982
   367  H   0.999    C  358 0.985
   368  H   0.999    C  359 0.981
   369  H   0.999    C  359 0.986
   370  H   0.999    C  359 0.980
   371  N   2.986    C  372 1.001    H  500 0.959    H  379 0.955
   372  C   3.981    N  371 1.001    C  375 0.983    H  380 0.963    C  373 0.950
   373  C   3.936    O  374 1.581    N  390 1.324    C  372 0.950
   374  O   1.908    C  373 1.581    N  390 0.191
   375  C   3.987    C  372 0.983    C  376 0.980    H  381 0.973    H  382 0.972
   376  C   3.992    C  377 1.012    C  378 1.010    C  375 0.980    H  383 0.968
   377  C   3.994    C  376 1.012    H  386 0.985    H  385 0.984    H  384 0.978
   378  C   3.994    C  376 1.010    H  388 0.983    H  389 0.981    H  387 0.979
   379  H   0.972    N  371 0.955
   380  H   0.998    C  372 0.963
   381  H   0.995    C  375 0.973
   382  H   0.996    C  375 0.972
   383  H   1.000    C  376 0.968
   384  H   0.999    C  377 0.978
   385  H   0.999    C  377 0.984
   386  H   0.997    C  377 0.985
   387  H   0.999    C  378 0.979
   388  H   0.996    C  378 0.983
   389  H   0.998    C  378 0.981
   390  N   3.489    C  373 1.324    C  391 0.986    H  399 0.894    O  374 0.191
   391  C   3.965    N  390 0.986    C  392 0.972    C  394 0.965    H  400 0.936    O  393 0.055
   392  C   3.891    O  393 1.882    C  391 0.972    H  501 0.955
   393  O   2.038    C  392 1.882    C  391 0.055
   394  C   3.983    C  395 1.005    H  402 0.970    H  401 0.966    C  391 0.965
   395  C   3.991    C  394 1.005    C  396 1.002    H  403 0.977    H  404 0.973
   396  C   3.982    C  397 1.011    C  395 1.002    H  406 0.965    H  405 0.965
   397  C   3.907    C  396 1.011    H  407 0.965    H  408 0.963    N  398 0.945
   398  N   3.673    C  397 0.945    H  411 0.906    H  410 0.898    H  409 0.882
   399  H   0.947    N  390 0.894
   400  H   0.990    C  391 0.936
   401  H   0.994    C  394 0.966
   402  H   0.994    C  394 0.970
   403  H   0.996    C  395 0.977
   404  H   0.996    C  395 0.973
   405  H   0.995    C  396 0.965
   406  H   0.992    C  396 0.965
   407  H   0.991    C  397 0.965
   408  H   0.986    C  397 0.963
   409  H   0.918    N  398 0.882
   410  H   0.915    N  398 0.898
   411  H   0.931    N  398 0.906
   412  N   2.986    C  413 0.985    H  421 0.953    H  502 0.951
   413  C   3.984    N  412 0.985    C  414 0.985    C  416 0.976    H  422 0.963    O  415 0.053
   414  C   3.891    O  415 1.897    C  413 0.985    H  503 0.953
   415  O   2.030    C  414 1.897    C  413 0.053
   416  C   3.991    C  417 0.999    C  413 0.976    H  424 0.973    H  423 0.955
   417  C   3.993    C  416 0.999    C  418 0.979    H  425 0.968    H  426 0.936
   418  C   3.941    O  419 1.614    N  420 1.312    C  417 0.979
   419  O   1.920    C  418 1.614    N  420 0.189
   420  N   3.393    C  418 1.312    H  427 0.930    H  428 0.900    O  419 0.189
   421  H   0.974    N  412 0.953
   422  H   0.997    C  413 0.963
   423  H   0.994    C  416 0.955
   424  H   0.999    C  416 0.973
   425  H   0.997    C  417 0.968
   426  H   0.991    C  417 0.936
   427  H   0.956    N  420 0.930
   428  H   0.946    N  420 0.900
   429  N   3.003    C  430 1.014    H  504 0.954    H  438 0.950
   430  C   3.982    N  429 1.014    C  431 0.982    C  433 0.957    H  439 0.946    O  432 0.055
   431  C   3.869    O  432 1.847    C  430 0.982    H  505 0.951
   432  O   2.040    C  431 1.847    C  430 0.055
   433  C   3.988    C  434 1.004    H  441 0.973    H  440 0.968    C  430 0.957
   434  C   3.992    C  433 1.004    C  435 1.002    H  442 0.978    H  443 0.967
   435  C   3.987    C  436 1.012    C  434 1.002    H  444 0.971    H  445 0.968
   436  C   3.924    C  435 1.012    H  446 0.970    H  447 0.968    N  437 0.957
   437  N   3.630    C  436 0.957    H  450 0.919    H  448 0.891    H  449 0.756    O  482 0.057
   438  H   0.969    N  429 0.950
   439  H   0.995    C  430 0.946
   440  H   0.995    C  433 0.968
   441  H   0.995    C  433 0.973
   442  H   0.999    C  434 0.978
   443  H   0.995    C  434 0.967
   444  H   0.996    C  435 0.971
   445  H   0.993    C  435 0.968
   446  H   0.991    C  436 0.970
   447  H   0.992    C  436 0.968
   448  H   0.929    N  437 0.891
   449  H   0.909    N  437 0.756    O  482 0.130
   450  H   0.944    N  437 0.919
   451  N   2.979    C  452 0.991    H  460 0.955    H  506 0.953
   452  C   3.983    N  451 0.991    C  455 0.987    H  461 0.964    C  453 0.940    O  454 0.052
   453  C   3.946    O  454 1.640    N  468 1.301    C  452 0.940
   454  O   1.956    C  453 1.640    N  468 0.200    C  452 0.052
   455  C   3.993    C  456 1.000    C  452 0.987    H  463 0.972    H  462 0.953
   456  C   3.994    C  455 1.000    C  457 0.975    H  464 0.968    H  465 0.949
   457  C   3.942    O  458 1.619    N  459 1.315    C  456 0.975
   458  O   1.927    C  457 1.619    N  459 0.192
   459  N   3.397    C  457 1.315    H  466 0.930    H  467 0.898    O  458 0.192
   460  H   0.976    N  451 0.955
   461  H   0.997    C  452 0.964
   462  H   0.995    C  455 0.953
   463  H   0.999    C  455 0.972
   464  H   0.996    C  456 0.968
   465  H   0.995    C  456 0.949
   466  H   0.957    N  459 0.930
   467  H   0.945    N  459 0.898
   468  N   3.467    C  453 1.301    C  469 0.977    H  473 0.894    O  454 0.200
   469  C   3.969    C  472 1.009    N  468 0.977    H  474 0.952    C  470 0.920    O  471 0.051
   470  C   3.938    O  471 1.660    N  478 1.283    C  469 0.920
   471  O   1.968    C  470 1.660    N  478 0.197    C  469 0.051
   472  C   3.987    C  469 1.009    H  475 0.983    H  477 0.982    H  476 0.981
   473  H   0.950    N  468 0.894
   474  H   0.996    C  469 0.952
   475  H   0.997    C  472 0.983
   476  H   0.994    C  472 0.981
   477  H   0.995    C  472 0.982
   478  N   3.454    C  470 1.283    C  479 0.986    H  483 0.925    O  471 0.197
   479  C   3.953    N  478 0.986    H  484 0.963    H  485 0.942    C  480 0.929
   480  C   3.944    O  481 1.523    O  482 1.454    C  479 0.929
   481  O   1.834    C  480 1.523    O  482 0.218
   482  O   1.939    C  480 1.454    O  481 0.218    H  449 0.130    N  437 0.057
   483  H   0.960    N  478 0.925
   484  H   0.998    C  479 0.963
   485  H   0.997    C  479 0.942
   486  H   0.973    N    1 0.963
   487  H   0.993    C  173 0.951
   488  H   0.971    N  218 0.958
   489  H   0.993    C  220 0.952
   490  H   0.965    N  242 0.955
   491  H   0.994    C  244 0.956
   492  H   0.972    N  266 0.962
   493  H   0.991    C  268 0.949
   494  H   0.964    N  281 0.955
   495  H   0.992    C  298 0.954
   496  H   0.971    N  315 0.959
   497  H   0.993    C  327 0.950
   498  H   0.965    N  342 0.956
   499  H   0.993    C  354 0.950
   500  H   0.967    N  371 0.959
   501  H   0.994    C  392 0.955
   502  H   0.966    N  412 0.951
   503  H   0.995    C  414 0.953
   504  H   0.966    N  429 0.954
   505  H   0.990    C  431 0.951
   506  H   0.965    N  451 0.953
 
molecular dipole:
                 x           y           z       tot (Debye)
 q only:      -42.841     -19.510     -24.659
   full:      -38.632     -16.889     -21.919     120.785
molecular quadrupole (traceless):
                xx          xy          yy          xz          yz          zz
 q only:     -336.692   -1409.048     326.718    -296.403   -1211.786       9.975
  q+dip:     -235.073   -1269.686     314.576    -220.134   -1096.122     -79.502
   full:     -233.776   -1269.465     314.552    -220.981   -1097.189     -80.776
speedup  8.09
cpu  time for grad   56.56 s
wall time for grad    6.99 s

SCC energy    :    -790.3050157
rep           :       8.9628825
ES            :       3.3436596
AES           :      -0.2228498
AXC           :       0.2378777
disp          :      -0.6286023
XB            :       0.0000000
fix           :       0.0000000
Gborn         :       0.0000000
Gsasa         :       0.0000000
Ghb           :       0.0000000
Gshift        :       0.0000000
Gsolv         :      -0.9366504     -587.76
Etot ala COSMO:    -790.3050157
grad norm     :       0.7921210
total E       :    -781.2716503
atomizationE  :     136.3599247    85567.14
(atE without considering molecular charge,
 total energy contains solvation terms)
H-L gap (eV)  :          1.5489

------------------------------------------------------------------------
 * finished run on 2019/02/16 at 08:10:36.388     
------------------------------------------------------------------------
 total:
 * wall-time:     0 d,  0 h,  0 min,  7.586 sec
 *  cpu-time:     0 d,  0 h,  1 min,  2.976 sec
 * ratio c/w:     8.302 speedup
 SCF:
 * wall-time:     0 d,  0 h,  0 min,  7.296 sec
 *  cpu-time:     0 d,  0 h,  0 min, 59.843 sec
 * ratio c/w:     8.203 speedup

