      -----------------------------------------------------------      
     |                   =====================                   |     
     |                           x T B                           |     
     |                   =====================                   |     
     |                         S. Grimme                         |     
     |          Mulliken Center for Theoretical Chemistry        |     
     |                    University of Bonn                     |     
     |                 Version 6.0.1 (SAW181210)                 |     
      -----------------------------------------------------------      

   This program is distributed in the hope that it will be useful,
   but WITHOUT ANY WARRANTY; without even the implied warranty of
   MERCHANTABILITY or FITNESS FOR A PARTICULAR PURPOSE.
   
   FOR NON-COMMERCIAL, ACADEMIA USE ONLY.
   
   Cite this work as:
   S. Grimme, C. Bannwarth, P. Shushkov, J. Comput. Theory Chem., 2017,
   13, 1989-2009.
   C. Bannwarth, S. Ehlert and S. Grimme., ChemRxiv, 2018, preprint.
   http://doi.org/10.26434/chemrxiv.7246238.v1
   
   for sTDA-xTB:
   S. Grimme and C. Bannwarth, J. Chem. Phys., 2016, 145, 054103.
   
   in the mass-spec context:
   V. Asgeirsson, C. Bauer and S. Grimme, Chem. Sci., 2017, 8, 4879.
   
   if GBSA is used:
   P. Shushkov, F. März and S. Grimme, unpublished.
   
   for ANC optimizer:
   S. Grimme, unpublished.
   Rational Function algorithm used in ANCopt:
   F. Eckert, P. Pulay, H.-J. Werner, J. Comput. Chem., 1997, 18, 1473.
   
   with help from (in alphabetical order)
   C. Bannwarth, F. Bohle, G. Brandenburg, E. Caldeweyher, M. Checinski,
   S. Dohm, S. Ehlert, S. Ehrlich, F. März, H. Neugebauer, J. Pisarek,
   P. Pracht, P. Shushkov, and S. Spicher.
   
 * started run on 2019/02/16 at 08:10:29.227     
========================================================================
 # omp threads = 12
========================================================================
number of atoms            : 598
number of electrons        : 1648
charge                     : -1
spin                       : .0
first test random number   : .3815

########################################################################
# WARNING! Please study the warnings concerning your input carefully
#  - Process number higher than OMP_NUM_THREADS, I hope you know what you are doing.
########################################################################

           ------------------------------------------------- 
          |                 G F N 2 - x T B                 |
          | Geometry, Frequencies, Noncovalent interactions |
          |            JCTC 2018 parametrisation            |
           ------------------------------------------------- 
 
      method parameters     
 k(s)        :  1.8500
 k(p)        :  2.2300
 k(d)        :  2.2300
 k(f)        :  2.0000
 kEN (H0ij)  : -2.0000
 D4 a1       :  0.5200
 D4 a2       :  5.0000
 D4 s6       :  1.0000
 D4 s8       :  2.7000
 D4 s9       :  5.0000
 alphaj      :  2.0000

 Solvent             : h2o
 Using internal parameter file: .param_gbsa2_h2o
 Gsolv ref. state (COSMO-RS): gsolv [1 M gas/solution]
 temperature (mdtemp)       :    298.150000000000     
 dielectric constant        :    80.2000000000000     
 rho                        :    1.00000000000000     
 mass                       :    18.0000000000000     
 surface tension            :    15.5689454083859     
 probe radius               :   0.975313790000000     
 vdW radii scaling          :    1.00000000000000     
 Gshift (Eh)                :   1.857443126794793E-003
 c1                         :    1.55243817000000     
 soset                      :   0.130326360000000     
 HB correction              :  T

            Z     q(EN)     CN     RAES       Cart. coordinates
     1  N   5.0   -0.20    3.21    1.96    26.87106    44.79807    -3.59523
     2  C   4.0    0.03    4.34    4.28    25.44699    47.03118    -2.79129
     3  C   4.0    0.15    3.44    3.09    25.99985    47.76484    -0.14642
     4  O   6.0   -0.31    1.31    1.80    25.87528    46.26332     1.56432
     5  C   4.0   -0.04    4.41    4.39    22.58313    46.46172    -2.94021
     6  C   4.0   -0.02    4.20    4.01    20.95843    48.74167    -2.46642
     7  C   4.0   -0.07    4.17    3.93    21.49530    50.73018    -4.43398
     8  C   4.0   -0.08    4.11    3.83    18.13410    48.00011    -2.79307
     9  H   1.0    0.12    1.05    1.44    26.61793    43.20190    -2.56852
    10  H   1.0    0.03    1.06    1.44    25.95978    48.53209    -4.11160
    11  H   1.0    0.04    1.03    1.43    22.18174    45.70701    -4.81692
    12  H   1.0    0.05    1.03    1.43    22.18174    44.97867    -1.55777
    13  H   1.0    0.05    1.05    1.44    21.25846    49.48907    -0.56485
    14  H   1.0    0.05    1.00    1.43    20.23183    52.33389    -4.17517
    15  H   1.0    0.04    1.00    1.43    23.40493    51.47532    -4.31589
    16  H   1.0    0.04    1.00    1.43    21.18962    49.95848    -6.31334
    17  H   1.0    0.04    1.00    1.43    16.92400    49.62962    -2.51006
    18  H   1.0    0.04    1.00    1.43    17.84179    47.26805    -4.68797
    19  H   1.0    0.04    1.00    1.43    17.60525    46.54788    -1.43683
    20  N   5.0   -0.14    3.46    2.05    26.77711    50.13261     0.37903
    21  C   4.0    0.03    4.43    4.44    27.32027    51.18735     2.86750
    22  C   4.0    0.15    3.40    3.08    24.84794    52.21534     4.03810
    23  O   6.0   -0.30    1.28    1.80    23.62879    53.76233     2.83565
    24  C   4.0   -0.03    4.31    4.21    29.37148    53.17136     2.64255
    25  C   4.0   -0.03    4.29    4.17    30.12649    53.89782     5.28115
    26  C   4.0    0.16    3.24    3.04    32.49328    55.56319     5.14356
    27  O   6.0   -0.31    1.27    1.80    32.48441    57.54108     4.02600
    28  N   5.0   -0.19    3.20    1.96    34.47951    54.75421     6.37107
    29  H   1.0    0.07    1.07    1.44    26.88115    51.40187    -1.05914
    30  H   1.0    0.07    1.06    1.44    27.98562    49.61247     4.04166
    31  H   1.0    0.05    1.03    1.43    30.96060    52.37004     1.60355
    32  H   1.0    0.06    1.03    1.43    28.66171    54.81724     1.62356
    33  H   1.0    0.06    1.04    1.43    28.63346    55.01911     6.15464
    34  H   1.0    0.05    1.03    1.43    30.49634    52.24058     6.44463
    35  H   1.0    0.08    1.03    1.43    34.43616    53.20537     7.49902
    36  H   1.0    0.09    1.03    1.43    36.05136    55.85284     6.49528
    37  N   5.0   -0.14    3.50    2.08    24.34794    51.46106     6.35925
    38  C   4.0    0.03    4.50    4.54    21.92926    51.82772     7.62342
    39  C   4.0    0.15    3.46    3.10    22.60554    53.05125    10.16427
    40  O   6.0   -0.32    1.31    1.80    24.38111    52.16393    11.41142
    41  C   4.0   -0.02    4.32    4.23    20.53336    49.36061     8.03948
    42  C   4.0   -0.04    4.19    3.98    19.63581    48.31593     5.47811
    43  C   4.0   -0.07    4.13    3.86    18.13863    49.80901     9.67321
    44  C   4.0   -0.08    3.99    3.60    19.08404    45.44458     5.47947
    45  H   1.0    0.11    1.11    1.45    25.48587    50.14367     7.18060
    46  H   1.0    0.06    1.06    1.44    20.82625    53.10560     6.42984
    47  H   1.0    0.05    1.05    1.44    21.79699    48.01247     8.95579
    48  H   1.0    0.04    1.03    1.43    17.94997    49.33954     4.88042
    49  H   1.0    0.06    1.03    1.43    21.09493    48.64990     4.05427
    50  H   1.0    0.04    1.00    1.43    16.98960    48.11592     9.72017
    51  H   1.0    0.06    1.00    1.43    18.63233    50.29627    11.60779
    52  H   1.0    0.04    1.00    1.43    17.03114    51.33460     8.86541
    53  H   1.0    0.04    1.00    1.43    18.33822    44.87333     3.65853
    54  H   1.0    0.04    1.00    1.43    20.82358    44.42037     5.84348
    55  H   1.0    0.04    1.00    1.43    17.70789    44.95792     6.92230
    56  N   5.0   -0.14    3.46    2.05    21.22336    55.00406    10.90868
    57  C   4.0    0.04    4.43    4.43    21.59071    56.22926    13.34579
    58  C   4.0    0.16    3.44    3.09    19.71486    55.26415    15.28059
    59  O   6.0   -0.31    1.29    1.80    17.46029    55.41487    14.83917
    60  C   4.0   -0.04    4.26    4.12    21.14732    59.08609    12.91131
    61  C   4.0   -0.05    4.15    3.90    22.61761    60.68199    14.85910
    62  C   4.0   -0.00    4.17    3.95    22.17915    63.57940    14.53835
    63  N   5.0   -0.14    3.40    2.02    23.52397    64.90302    16.55085
    64  C   4.0    0.10    3.34    3.06    23.26151    67.35684    17.09031
    65  N   5.0   -0.17    3.25    1.97    21.48591    68.70827    15.89883
    66  N   5.0   -0.18    3.23    1.96    24.56588    68.28150    19.04365
    67  H   1.0    0.09    1.10    1.44    19.70520    55.62569     9.93155
    68  H   1.0    0.06    1.06    1.44    23.53812    55.86287    13.92906
    69  H   1.0    0.05    1.03    1.43    21.77154    59.59428    11.01559
    70  H   1.0    0.06    1.03    1.43    19.12694    59.46695    13.03600
    71  H   1.0    0.05    1.03    1.43    21.97898    60.15336    16.74504
    72  H   1.0    0.05    1.03    1.43    24.62176    60.27481    14.65220
    73  H   1.0    0.06    1.02    1.43    22.83531    64.19332    12.67655
    74  H   1.0    0.05    1.02    1.43    20.16525    63.99109    14.67786
    75  H   1.0    0.08    1.07    1.44    24.94548    63.93074    17.37788
    76  H   1.0    0.11    1.04    1.43    20.99024    68.21909    14.12050
    77  H   1.0    0.11    1.05    1.44    21.37750    70.59339    16.24208
    78  H   1.0    0.09    1.03    1.43    25.83211    67.21345    19.97808
    79  H   1.0    0.09    1.03    1.43    24.39877    70.12496    19.48151
    80  N   5.0   -0.14    3.37    2.01    20.73951    54.31270    17.36449
    81  C   4.0    0.02    4.29    4.18    19.04352    53.60678    19.41153
    82  C   4.0    0.15    3.33    3.06    18.63868    50.79762    19.54565
    83  O   6.0   -0.30    1.28    1.80    18.12888    49.50026    17.70269
    84  H   1.0    0.11    1.09    1.44    22.62662    54.05607    17.56257
    85  H   1.0    0.05    1.03    1.43    19.82421    54.29863    21.19304
    86  H   1.0    0.07    1.05    1.44    17.22119    54.50312    19.04187
    87  N   5.0   -0.15    3.45    2.04    19.05511    49.75248    21.81472
    88  C   4.0    0.03    4.40    4.38    18.77885    47.01005    22.22027
    89  C   4.0    0.16    3.45    3.10    16.10572    46.03396    21.67806
    90  O   6.0   -0.32    1.29    1.80    15.90829    44.05662    20.42910
    91  H   1.0    0.09    1.08    1.44    19.60909    50.81561    23.31765
    92  H   1.0    0.05    1.06    1.44    20.00768    46.02163    20.87994
    93  C   4.0   -0.05    4.28    4.17    19.63134    46.39902    24.90861
    94  C   4.0   -0.04    4.20    3.99    19.15133    43.67923    25.68132
    95  C   4.0   -0.00    4.21    4.02    20.45511    43.08948    28.19541
    96  N   5.0   -0.14    3.39    2.02    23.12620    42.55863    27.90196
    97  C   4.0    0.10    3.34    3.06    25.05209    44.16773    28.12025
    98  N   5.0   -0.18    3.28    1.98    24.79613    46.49372    28.98831
    99  N   5.0   -0.18    3.25    1.97    27.39154    43.35712    27.58046
   100  H   1.0    0.05    1.03    1.43    21.64777    46.80507    25.01982
   101  H   1.0    0.05    1.03    1.43    18.59978    47.62406    26.21192
   102  H   1.0    0.06    1.03    1.43    17.12398    43.35649    25.88628
   103  H   1.0    0.05    1.03    1.43    19.81082    42.38325    24.21864
   104  H   1.0    0.06    1.05    1.44    20.17802    44.63811    29.49844
   105  H   1.0    0.06    1.04    1.43    19.57365    41.40514    28.96453
   106  H   1.0    0.08    1.07    1.44    23.50249    40.84513    27.15127
   107  H   1.0    0.11    1.07    1.44    23.15975    47.12929    29.77586
   108  H   1.0    0.12    1.08    1.44    26.33395    47.64122    28.84830
   109  H   1.0    0.08    1.03    1.43    27.66543    41.74192    26.61808
   110  H   1.0    0.11    1.04    1.43    28.77932    44.67030    27.52420
   111  N   5.0   -0.13    3.50    2.08    14.15246    47.43322    22.40238
   112  C   4.0    0.04    4.41    4.39    11.57592    46.51015    22.15409
   113  C   4.0    0.16    3.49    3.11    11.08072    46.34724    19.31605
   114  O   6.0   -0.32    1.29    1.80    10.10124    44.49524    18.28096
   115  C   4.0   -0.04    4.23    4.06     9.54037    48.16263    23.34443
   116  C   4.0   -0.02    4.17    3.94     9.76497    48.64897    26.16663
   117  C   4.0    0.25    3.08    3.02     9.72709    46.39680    28.05098
   118  O   6.0   -0.27    1.16    1.80     8.15385    46.56277    29.81955
   119  O   6.0   -0.30    1.16    1.80    11.38376    44.71421    27.82462
   120  H   1.0    0.10    1.11    1.44    14.43478    48.82758    23.71969
   121  H   1.0    0.07    1.05    1.44    11.43808    44.59586    22.94999
   122  H   1.0    0.05    1.03    1.43     9.51926    49.98778    22.38884
   123  H   1.0    0.06    1.03    1.43     7.71856    47.25994    22.96671
   124  H   1.0    0.07    1.06    1.44    11.53807    49.59603    26.58716
   125  H   1.0    0.06    1.03    1.43     8.21686    49.88487    26.73341
   126  N   5.0   -0.13    3.49    2.07    12.00964    48.30930    17.95688
   127  C   4.0    0.04    4.39    4.36    11.53537    48.37945    15.23456
   128  C   4.0    0.15    3.45    3.10    12.91383    46.29151    13.77568
   129  O   6.0   -0.31    1.24    1.80    11.90401    45.08484    12.02166
   130  C   4.0   -0.04    4.24    4.09    12.26251    50.98304    14.16043
   131  C   4.0   -0.05    4.15    3.90    11.43769    51.47674    11.36127
   132  C   4.0   -0.01    4.20    4.00    12.19532    54.20372    10.55483
   133  N   5.0   -0.14    3.45    2.05    10.33896    55.86547    11.88063
   134  C   4.0    0.10    3.34    3.06    10.66440    58.33541    12.05057
   135  N   5.0   -0.18    3.31    1.99    12.87847    59.23687    11.34246
   136  N   5.0   -0.17    3.26    1.97     8.93830    59.78470    13.13096
   137  H   1.0    0.10    1.08    1.44    12.59285    49.91362    18.84234
   138  H   1.0    0.06    1.05    1.44     9.50760    48.04953    14.91179
   139  H   1.0    0.06    1.03    1.43    11.33075    52.40915    15.31883
   140  H   1.0    0.06    1.02    1.43    14.30154    51.22839    14.31317
   141  H   1.0    0.04    1.02    1.43    12.34894    50.09304    10.14601
   142  H   1.0    0.04    1.02    1.43     9.40439    51.23988    11.18418
   143  H   1.0    0.06    1.03    1.43    14.09644    54.58625    11.24131
   144  H   1.0    0.04    1.02    1.43    12.03246    54.46242     8.52532
   145  H   1.0    0.10    1.10    1.44     8.71694    55.07543    12.54160
   146  H   1.0    0.10    1.06    1.44    14.10096    58.20729    10.31602
   147  H   1.0    0.11    1.07    1.44    13.20655    61.13150    11.48378
   148  H   1.0    0.11    1.05    1.44     7.23735    59.07796    13.61946
   149  H   1.0    0.13    1.10    1.44     9.18567    61.67814    13.42764
   150  N   5.0   -0.14    3.48    2.07    15.32144    45.98790    14.48287
   151  C   4.0    0.04    4.41    4.39    16.76298    43.93395    13.45843
   152  C   4.0    0.16    3.49    3.11    15.59107    41.39758    13.87661
   153  O   6.0   -0.31    1.30    1.80    15.24760    39.79014    12.20298
   154  C   4.0   -0.04    4.27    4.15    19.50686    43.90995    14.56151
   155  C   4.0   -0.01    3.51    3.12    20.99704    41.47803    13.95690
   156  C   4.0   -0.04    3.51    3.12    21.96495    40.91892    11.58018
   157  C   4.0   -0.03    3.44    3.09    21.45440    39.71768    15.83483
   158  C   4.0   -0.04    3.34    3.06    23.24060    38.74458    10.87986
   159  C   4.0   -0.03    3.39    3.08    22.69934    37.46466    15.19797
   160  C   4.0   -0.04    3.39    3.08    23.48799    36.94787    12.74539
   161  H   1.0    0.11    1.09    1.44    16.06707    47.02923    15.91828
   162  H   1.0    0.05    1.06    1.44    16.87956    44.14023    11.39205
   163  H   1.0    0.04    1.02    1.43    20.49410    45.55961    13.83590
   164  H   1.0    0.06    1.03    1.43    19.33679    44.06386    16.60773
   165  H   1.0    0.05    1.03    1.43    21.68045    42.34994    10.13204
   166  H   1.0    0.06    1.03    1.43    20.78163    40.00147    17.73719
   167  H   1.0    0.06    1.03    1.43    23.98523    38.50395     9.00688
   168  H   1.0    0.06    1.03    1.43    22.94963    36.04670    16.63950
   169  H   1.0    0.05    1.07    1.44    24.35227    35.15591    12.37136
   170  N   5.0   -0.13    3.46    2.05    14.57373    40.95809    16.21441
   171  C   4.0    0.04    4.38    4.34    13.41511    38.44311    16.69527
   172  C   4.0    0.16    3.40    3.08    10.98252    37.99912    15.04011
   173  O   6.0   -0.30    1.26    1.80    10.55781    35.92201    14.08236
   174  H   1.0    0.11    1.09    1.44    14.81231    42.13174    17.70689
   175  H   1.0    0.07    1.05    1.44    14.75294    36.95513    16.20480
   176  C   4.0   -0.03    4.30    4.19    12.58361    38.36271    19.46577
   177  C   4.0   -0.02    4.18    3.97    14.78496    38.15015    21.31194
   178  C   4.0    0.24    3.20    3.04    15.91016    35.48309    21.10012
   179  O   6.0   -0.31    1.22    1.80    18.07563    35.20736    20.24908
   180  O   6.0   -0.31    1.34    1.80    14.47334    33.72666    21.83657
   181  H   1.0    0.06    1.03    1.43    11.49660    40.08039    19.83932
   182  H   1.0    0.06    1.03    1.43    11.31801    36.75083    19.73386
   183  H   1.0    0.06    1.03    1.43    16.20632    39.58341    20.92730
   184  H   1.0    0.06    1.03    1.43    14.05520    38.39035    23.22593
   185  N   5.0   -0.13    3.47    2.06     9.55538    39.98930    14.60403
   186  C   4.0    0.04    4.43    4.42     7.27057    39.86784    12.95269
   187  C   4.0    0.15    3.51    3.12     8.06928    39.06056    10.32286
   188  O   6.0   -0.29    1.23    1.80     6.99116    37.39087     9.05143
   189  C   4.0   -0.04    4.39    4.36     5.89736    42.36269    13.08243
   190  C   4.0   -0.03    4.12    3.85     3.82980    42.39675    11.14630
   191  S   6.0   -0.03    2.53    3.10     2.60825    45.50043    10.76450
   192  C   4.0   -0.07    3.88    3.43     5.00489    46.97884     8.77059
   193  H   1.0    0.11    1.08    1.44     9.77149    41.58822    15.63928
   194  H   1.0    0.06    1.05    1.44     6.05319    38.35267    13.69478
   195  H   1.0    0.06    1.03    1.43     5.15605    42.62536    14.98714
   196  H   1.0    0.06    1.05    1.44     7.26718    43.86328    12.68942
   197  H   1.0    0.05    1.09    1.44     4.50636    41.75292     9.30527
   198  H   1.0    0.05    1.08    1.44     2.25844    41.18284    11.69572
   199  H   1.0    0.04    1.05    1.44     4.42994    48.93349     8.60954
   200  H   1.0    0.05    1.03    1.43     6.85640    46.82208     9.63967
   201  H   1.0    0.05    1.04    1.43     5.00528    46.06770     6.93271
   202  N   5.0   -0.14    3.51    2.09     9.94744    40.43287     9.28255
   203  C   4.0    0.04    4.47    4.49    10.72294    39.90758     6.79643
   204  C   4.0    0.16    3.47    3.10    11.86036    37.24032     6.53016
   205  O   6.0   -0.28    1.23    1.80    11.61882    35.98009     4.59901
   206  C   4.0   -0.04    4.27    4.15    12.64690    41.83908     5.70920
   207  C   4.0   -0.02    3.50    3.12    11.32175    44.26299     4.85360
   208  C   4.0   -0.04    3.52    3.12     9.25152    44.23117     3.20090
   209  C   4.0   -0.04    3.50    3.12    11.89916    46.60076     5.75340
   210  C   4.0   -0.04    3.41    3.08     7.92410    46.35527     2.56559
   211  C   4.0   -0.05    3.40    3.08    10.71884    48.83302     4.92218
   212  C   4.0   -0.05    3.38    3.07     8.57867    48.66844     3.47303
   213  H   1.0    0.11    1.08    1.44    10.80432    41.82862    10.28825
   214  H   1.0    0.06    1.06    1.44     9.03876    39.87851     5.57594
   215  H   1.0    0.05    1.03    1.43    14.04872    42.24732     7.15692
   216  H   1.0    0.04    1.03    1.43    13.55701    40.96252     4.08467
   217  H   1.0    0.05    1.03    1.43     8.68266    42.43851     2.39219
   218  H   1.0    0.05    1.03    1.43    13.45735    46.79199     7.06288
   219  H   1.0    0.05    1.03    1.43     6.28793    46.15269     1.35715
   220  H   1.0    0.04    1.03    1.43    11.31425    50.60069     5.72506
   221  H   1.0    0.04    1.03    1.43     7.51675    50.32574     2.94549
   222  N   5.0   -0.14    3.51    2.09    13.27482    36.54424     8.45668
   223  C   4.0    0.03    4.42    4.42    14.49205    34.01076     8.40819
   224  C   4.0    0.16    3.44    3.09    12.40793    31.95429     8.34143
   225  O   6.0   -0.28    1.22    1.80    12.59383    30.09712     6.89695
   226  H   1.0    0.12    1.10    1.44    13.56950    37.63423    10.00156
   227  H   1.0    0.05    1.05    1.44    15.55004    33.83457     6.64338
   228  C   4.0   -0.04    4.31    4.21    16.14184    33.74340    10.73486
   229  C   4.0   -0.04    4.24    4.08    17.60008    31.27104    10.60095
   230  C   4.0   -0.01    4.24    4.09    16.87618    29.56561    12.74997
   231  N   5.0   -0.14    3.45    2.05    17.51995    30.79038    15.10920
   232  C   4.0    0.10    3.38    3.07    16.00384    30.87816    17.12646
   233  N   5.0   -0.17    3.23    1.96    13.50856    31.18999    16.90957
   234  N   5.0   -0.16    3.34    2.00    17.11286    30.54423    19.37805
   235  H   1.0    0.05    1.03    1.43    17.40960    35.36698    10.80955
   236  H   1.0    0.06    1.04    1.43    14.94117    33.81998    12.40831
   237  H   1.0    0.05    1.04    1.43    17.23078    30.29670     8.82457
   238  H   1.0    0.04    1.03    1.43    19.61934    31.63824    10.72994
   239  H   1.0    0.05    1.03    1.43    14.85835    29.17222    12.69405
   240  H   1.0    0.05    1.02    1.43    17.84331    27.74239    12.59805
   241  H   1.0    0.08    1.08    1.44    19.38960    30.73601    15.50885
   242  H   1.0    0.09    1.03    1.43    12.58557    30.90509    15.27462
   243  H   1.0    0.11    1.04    1.43    12.49144    31.37930    18.50669
   244  H   1.0    0.10    1.05    1.44    18.94810    31.07402    19.47338
   245  H   1.0    0.13    1.16    1.46    16.06413    31.32668    20.85811
   246  N   5.0   -0.13    3.42    2.03    10.33331    32.35433     9.71054
   247  C   4.0    0.04    4.30    4.19     8.30012    30.42585     9.76601
   248  C   4.0    0.10    3.23    3.04     6.95905    30.31244     7.18613
   249  O   6.0   -0.27    1.11    1.80     6.37320    28.25622     6.25650
   250  C   4.0   -0.03    4.22    4.05     6.25715    31.18437    11.75616
   251  C   4.0   -0.02    4.19    3.99     4.58062    28.91226    12.26478
   252  C   4.0    0.25    3.08    3.02     2.36604    29.15475    14.16637
   253  O   6.0   -0.27    1.17    1.80     2.17158    31.13793    15.38418
   254  O   6.0   -0.27    1.16    1.80     0.90907    27.26850    14.31742
   255  H   1.0    0.11    1.09    1.44    10.31962    33.72407    11.05083
   256  H   1.0    0.06    1.05    1.44     9.10131    28.57288    10.18982
   257  H   1.0    0.06    1.02    1.43     7.18119    31.79546    13.49311
   258  H   1.0    0.07    1.03    1.43     5.14346    32.72481    10.99711
   259  H   1.0    0.07    1.03    1.43     3.73374    28.24671    10.49888
   260  H   1.0    0.05    1.03    1.43     5.73248    27.34925    12.98410
   261  O   6.0   -0.26    1.94    1.82    23.24165    59.06915     3.81844
   262  H   1.0    0.16    0.98    1.43    23.24270    58.75151     2.03765
   263  H   1.0    0.18    1.04    1.43    21.63367    59.88658     4.20934
   264  O   6.0   -0.32    1.97    1.82    12.47524    53.18450    20.85195
   265  H   1.0    0.14    0.99    1.43    13.11096    54.73934    20.07489
   266  H   1.0    0.13    0.97    1.43    10.67419    53.39758    20.81382
   267  O   6.0   -0.29    1.92    1.82     5.96757    41.62099    20.01168
   268  H   1.0    0.15    1.01    1.43     7.51014    42.48069    19.53495
   269  H   1.0    0.14    0.97    1.43     6.08280    41.32097    21.79421
   270  O   6.0   -0.32    1.98    1.82     5.98433    54.40935    14.66148
   271  H   1.0    0.16    1.03    1.43     5.22650    55.99438    15.18720
   272  H   1.0    0.13    0.97    1.43     4.60504    53.25023    14.48417
   273  O   6.0   -0.31    1.95    1.82    13.79638    57.76183    18.05629
   274  H   1.0    0.15    1.00    1.43    14.92421    57.29393    16.68452
   275  H   1.0    0.14    0.97    1.43    12.48686    58.77946    17.33137
   276  O   6.0   -0.32    2.00    1.83    20.47020    48.28232    31.47675
   277  H   1.0    0.13    0.97    1.43    20.25365    50.08111    31.41433
   278  H   1.0    0.14    0.99    1.43    18.77984    47.56630    31.51858
   279  O   6.0   -0.32    2.02    1.83    14.49296    51.60584    25.70733
   280  H   1.0    0.13    0.97    1.43    16.04202    52.55014    25.90780
   281  H   1.0    0.14    0.99    1.43    13.57787    52.44753    24.35793
   282  O   6.0   -0.32    1.97    1.82    15.63205    45.59944    31.64061
   283  H   1.0    0.15    0.98    1.43    15.15077    44.54873    30.22841
   284  H   1.0    0.14    0.97    1.43    14.10634    46.48441    32.06400
   285  O   6.0   -0.29    1.92    1.82     3.49748    50.24359    24.59651
   286  H   1.0    0.13    0.97    1.43     4.01799    51.89268    25.15447
   287  H   1.0    0.13    0.97    1.43     2.13162    50.50905    23.42939
   288  O   6.0   -0.33    2.07    1.83    17.15538    56.97370     7.80766
   289  H   1.0    0.15    1.00    1.43    17.28585    58.77846     7.35589
   290  H   1.0    0.13    0.98    1.43    18.60674    56.39419     6.85420
   291  O   6.0   -0.27    1.92    1.82    29.36648    61.08426     1.46451
   292  H   1.0    0.16    1.00    1.43    30.32862    59.87563     2.43998
   293  H   1.0    0.13    0.97    1.43    30.46928    61.68401     0.14075
   294  O   6.0   -0.28    1.93    1.82    24.89827    56.61605    -1.46451
   295  H   1.0    0.12    0.97    1.43    26.10690    55.65391    -2.43998
   296  H   1.0    0.16    1.01    1.43    24.29852    55.51325    -0.14075
   297  O   6.0   -0.32    2.01    1.83    14.08681    64.36467    12.60405
   298  H   1.0    0.13    0.97    1.43    15.01910    64.16153    14.15137
   299  H   1.0    0.16    1.05    1.44    12.35936    64.78215    13.17558
   300  O   6.0   -0.32    1.94    1.82    21.72173    53.09759    25.77008
   301  H   1.0    0.13    0.97    1.43    23.14849    52.05094    26.18887
   302  H   1.0    0.12    0.97    1.43    21.16504    53.84022    27.32993
   303  O   6.0   -0.28    1.93    1.82     2.84872    62.71930    11.52802
   304  H   1.0    0.16    1.01    1.43     3.75311    63.72460    12.75376
   305  H   1.0    0.15    0.98    1.43     1.68392    61.67789    12.47099
   306  O   6.0   -0.28    1.92    1.82    17.86487    67.29673     9.94348
   307  H   1.0    0.14    0.97    1.43    18.25584    66.33945     8.45425
   308  H   1.0    0.14    0.99    1.43    16.51650    66.36877    10.80389
   309  O   6.0   -0.33    2.00    1.83    20.47020    37.70021    31.26215
   310  H   1.0    0.13    0.97    1.43    20.25365    35.90142    31.32458
   311  H   1.0    0.14    0.99    1.43    18.77984    38.41623    31.22032
   312  O   6.0   -0.31    2.02    1.83     3.85159    58.95257    15.62967
   313  H   1.0    0.17    1.05    1.44     2.04109    58.77230    15.20903
   314  H   1.0    0.15    0.97    1.43     4.02637    60.60870    16.35182
   315  O   6.0   -0.30    1.97    1.82    27.05598    74.26415    14.46334
   316  H   1.0    0.14    0.97    1.43    26.12082    74.96902    15.85361
   317  H   1.0    0.15    1.00    1.43    25.78381    73.91582    13.19647
   318  O   6.0   -0.30    1.93    1.82    31.69100    39.50538    11.86285
   319  H   1.0    0.13    0.97    1.43    32.21365    37.95937    12.66501
   320  H   1.0    0.14    0.98    1.43    30.59498    38.98298    10.49277
   321  O   6.0   -0.32    1.97    1.82    15.63205    40.38309    31.09830
   322  H   1.0    0.13    0.98    1.43    15.15077    41.43380    32.51049
   323  H   1.0    0.14    0.97    1.43    14.10634    39.49812    30.67490
   324  O   6.0   -0.33    2.05    1.83    29.69927    61.70027    22.84633
   325  H   1.0    0.12    0.97    1.43    31.38410    61.50911    23.49352
   326  H   1.0    0.12    0.97    1.43    28.79972    62.75128    24.03282
   327  O   6.0   -0.30    1.94    1.82    21.36291    74.49021    15.87840
   328  H   1.0    0.16    1.01    1.43    21.79251    74.10257    14.12159
   329  H   1.0    0.14    0.97    1.43    19.85465    75.50460    15.76824
   330  N   5.0   -0.11    4.12    3.21    27.24587    57.32239    22.37147
   331  C   4.0   -0.00    4.30    4.19    29.00875    55.19694    21.69452
   332  C   4.0    0.15    3.42    3.08    28.24810    54.37123    18.98869
   333  O   6.0   -0.32    1.33    1.80    25.97217    54.38078    18.52038
   334  C   4.0   -0.04    4.24    4.09    28.63921    52.96887    23.52341
   335  C   4.0   -0.03    4.15    3.89    30.92084    51.20200    23.58886
   336  C   4.0    0.25    3.07    3.02    30.96627    49.40739    25.97818
   337  O   6.0   -0.32    1.25    1.80    28.87669    49.01709    27.00801
   338  O   6.0   -0.29    1.15    1.80    33.05958    48.52958    26.64011
   339  H   1.0    0.06    1.03    1.43    26.54384    57.05371    24.16381
   340  H   1.0    0.09    1.09    1.44    28.16646    59.12736    22.30966
   341  H   1.0    0.08    1.06    1.44    25.73270    57.18090    21.12795
   342  H   1.0    0.04    1.04    1.43    30.95761    55.85575    21.77136
   343  H   1.0    0.05    1.03    1.43    28.41495    53.68329    25.44936
   344  H   1.0    0.06    1.03    1.43    26.96005    51.88814    23.02912
   345  H   1.0    0.06    1.02    1.43    30.97197    49.96699    21.93410
   346  H   1.0    0.05    1.02    1.43    32.69386    52.25330    23.65255
   347  N   5.0   -0.14    3.44    2.04    30.06210    53.95440    17.35437
   348  C   4.0    0.04    4.40    4.38    29.62042    53.24294    14.75987
   349  C   4.0    0.15    3.43    3.09    30.20239    50.41482    14.48529
   350  O   6.0   -0.29    1.22    1.80    31.90105    49.34549    15.67344
   351  H   1.0    0.08    1.07    1.44    31.89874    53.89201    17.90301
   352  H   1.0    0.07    1.07    1.44    27.61876    53.53507    14.34509
   353  C   4.0   -0.03    4.33    4.25    31.36866    54.60991    12.86084
   354  C   4.0   -0.02    3.52    3.12    30.36371    56.86649    11.49058
   355  C   4.0   -0.04    3.48    3.11    28.01331    57.04428    10.34328
   356  C   4.0   -0.04    3.51    3.12    31.97205    58.90145    11.19166
   357  C   4.0   -0.03    3.45    3.09    27.20297    59.25148     9.22932
   358  C   4.0   -0.04    3.43    3.09    31.21797    61.11005    10.00843
   359  C   4.0    0.07    3.43    3.09    28.76514    61.36828     9.13845
   360  O   6.0   -0.23    2.10    1.84    27.80379    63.61394     8.26862
   361  H   1.0    0.05    1.04    1.43    33.08081    55.14258    13.87635
   362  H   1.0    0.05    1.04    1.44    31.91976    53.20459    11.44553
   363  H   1.0    0.07    1.05    1.44    26.78680    55.41994    10.31437
   364  H   1.0    0.05    1.04    1.43    33.84264    58.69206    11.96249
   365  H   1.0    0.07    1.03    1.43    25.39147    59.34390     8.29887
   366  H   1.0    0.05    1.03    1.43    32.50922    62.67405     9.78494
   367  H   1.0    0.12    1.03    1.43    29.08239    64.61604     7.44552
   368  N   5.0   -0.13    3.51    2.08    28.50270    49.18833    13.01248
   369  C   4.0    0.04    4.39    4.37    28.75703    46.47564    12.50403
   370  C   4.0    0.14    3.43    3.09    28.72038    46.09616     9.63530
   371  O   6.0   -0.31    1.34    1.80    27.67011    47.70856     8.29565
   372  C   4.0   -0.03    4.37    4.33    26.46963    45.14461    13.63299
   373  C   4.0   -0.01    3.59    3.16    26.20581    45.48965    16.40098
   374  C   4.0   -0.03    3.46    3.10    24.81272    47.50095    17.37939
   375  C   4.0   -0.03    3.48    3.10    27.45641    43.84870    18.01887
   376  C   4.0   -0.03    3.40    3.08    24.76421    47.85246    19.95288
   377  C   4.0   -0.03    3.37    3.07    27.47889    44.30543    20.60829
   378  C   4.0   -0.04    3.38    3.07    26.12724    46.29911    21.56303
   379  H   1.0    0.12    1.10    1.44    27.11296    50.11740    12.07424
   380  H   1.0    0.06    1.05    1.44    30.52055    45.81766    13.35172
   381  H   1.0    0.05    1.04    1.43    24.79690    45.88896    12.66996
   382  H   1.0    0.05    1.03    1.43    26.58788    43.12836    13.18042
   383  H   1.0    0.07    1.03    1.43    23.82873    48.76688    16.12238
   384  H   1.0    0.06    1.03    1.43    28.51593    42.29512    17.22822
   385  H   1.0    0.06    1.03    1.43    23.72473    49.43085    20.71724
   386  H   1.0    0.05    1.03    1.43    28.55719    43.09205    21.84482
   387  H   1.0    0.06    1.03    1.43    26.19493    46.70087    23.56396
   388  N   5.0   -0.13    3.55    2.12    29.85008    44.15550     8.51649
   389  C   4.0    0.05    4.58    4.64    29.81550    43.62620     5.91945
   390  C   4.0    0.14    3.50    3.11    28.46056    41.13423     5.48484
   391  O   6.0   -0.31    1.25    1.80    28.72342    39.30088     6.94364
   392  H   1.0    0.09    1.09    1.44    30.54953    42.78021     9.65788
   393  H   1.0    0.07    1.08    1.44    28.79125    45.14662     4.95907
   394  C   4.0    0.06    4.33    4.25    32.54196    43.52324     5.13280
   395  O   6.0   -0.25    2.13    1.84    33.31680    46.05639     4.84885
   396  C   4.0   -0.07    4.14    3.88    32.87693    41.87341     2.84653
   397  H   1.0    0.05    1.05    1.44    33.62163    42.67436     6.70155
   398  H   1.0    0.12    1.03    1.43    35.10647    46.04635     4.47811
   399  H   1.0    0.04    1.00    1.43    34.70041    42.18467     1.97133
   400  H   1.0    0.05    1.01    1.43    32.77141    39.90844     3.41524
   401  H   1.0    0.05    1.01    1.43    31.38736    42.22142     1.48893
   402  N   5.0   -0.14    3.47    2.06    26.87106    41.18446     3.59523
   403  C   4.0    0.03    4.36    4.31    25.44699    38.95135     2.79129
   404  C   4.0    0.08    3.27    3.05    25.99985    38.21770     0.14642
   405  O   6.0   -0.31    1.18    1.80    25.87528    39.71921    -1.56432
   406  C   4.0   -0.04    4.41    4.39    22.58313    39.52081     2.94021
   407  C   4.0   -0.03    4.20    4.01    20.95843    37.24086     2.46642
   408  C   4.0   -0.08    4.17    3.93    21.49530    35.25235     4.43398
   409  C   4.0   -0.07    4.11    3.83    18.13410    37.98242     2.79307
   410  H   1.0    0.11    1.09    1.44    26.61793    42.78063     2.56852
   411  H   1.0    0.05    1.07    1.44    25.95978    37.45044     4.11160
   412  H   1.0    0.04    1.03    1.43    22.18174    40.27552     4.81692
   413  H   1.0    0.05    1.03    1.43    22.18174    41.00386     1.55777
   414  H   1.0    0.04    1.05    1.44    21.25846    36.49346     0.56485
   415  H   1.0    0.04    1.00    1.43    20.23183    33.64864     4.17517
   416  H   1.0    0.04    1.00    1.43    23.40493    34.50721     4.31589
   417  H   1.0    0.04    1.00    1.43    21.18962    36.02405     6.31334
   418  H   1.0    0.05    1.00    1.43    16.92400    36.35291     2.51006
   419  H   1.0    0.04    1.00    1.43    17.84179    38.71448     4.68797
   420  H   1.0    0.04    1.00    1.43    17.60525    39.43465     1.43683
   421  N   5.0   -0.22    3.19    1.95     9.40011    54.14037    -1.78350
   422  C   4.0    0.02    4.23    4.06    11.10708    55.22720     0.11416
   423  C   4.0    0.08    3.25    3.04    11.30735    58.05171    -0.18699
   424  O   6.0   -0.30    1.13    1.80    11.24680    59.63200     1.59760
   425  C   4.0   -0.03    4.38    4.35    13.72494    54.12487    -0.15139
   426  C   4.0    0.16    3.25    3.04    15.60892    54.87361     1.84831
   427  O   6.0   -0.27    1.20    1.80    17.61420    55.92112     1.29887
   428  N   5.0   -0.19    3.27    1.97    14.83772    54.40984     4.09288
   429  H   1.0    0.08    1.02    1.43    10.11366    52.89928    -3.06118
   430  H   1.0    0.04    1.05    1.44    10.26695    54.88195     1.97983
   431  H   1.0    0.03    1.03    1.43    13.54953    52.06077    -0.14511
   432  H   1.0    0.05    1.03    1.43    14.48129    54.66244    -1.99872
   433  H   1.0    0.11    1.11    1.45    15.72888    55.13768     5.63871
   434  H   1.0    0.07    1.05    1.44    13.18127    53.50170     4.34734
   435  N   5.0   -0.20    3.26    1.97     5.34865    61.13704     2.55174
   436  C   4.0    0.03    4.37    4.32     5.43081    61.25682     5.26928
   437  C   4.0    0.15    3.42    3.08     7.02728    63.34705     6.21061
   438  O   6.0   -0.29    1.26    1.80     6.39774    64.70231     7.99290
   439  C   4.0   -0.04    4.43    4.43     6.10903    58.77265     6.39936
   440  C   4.0   -0.03    4.18    3.95     4.13299    56.64650     5.88205
   441  C   4.0   -0.08    4.15    3.91     5.53569    54.31950     6.74285
   442  C   4.0   -0.07    4.09    3.78     1.73611    57.13350     7.44557
   443  H   1.0    0.09    1.02    1.43     5.97914    59.57919     1.63509
   444  H   1.0    0.06    1.07    1.44     3.52252    61.77603     5.93894
   445  H   1.0    0.05    1.03    1.43     7.95128    58.21757     5.64792
   446  H   1.0    0.05    1.04    1.43     6.27407    59.03760     8.43589
   447  H   1.0    0.04    1.05    1.44     3.69121    56.55756     3.87491
   448  H   1.0    0.04    1.00    1.43     4.37786    52.63121     6.55070
   449  H   1.0    0.04    1.00    1.43     7.24236    54.06497     5.63577
   450  H   1.0    0.04    1.01    1.43     6.04882    54.51469     8.72276
   451  H   1.0    0.05    1.00    1.43     0.47377    55.51396     7.37142
   452  H   1.0    0.06    1.00    1.43     2.22062    57.46489     9.41599
   453  H   1.0    0.05    1.00    1.43     0.72370    58.78345     6.77169
   454  N   5.0   -0.14    3.42    2.03     9.30789    63.68699     5.03579
   455  C   4.0    0.04    4.29    4.18    11.04353    65.79051     5.68766
   456  C   4.0    0.09    3.20    3.04     9.93186    68.36628     5.12945
   457  O   6.0   -0.28    1.12    1.80    10.16360    70.05507     6.73696
   458  C   4.0   -0.03    4.28    4.16    13.66753    65.41998     4.53071
   459  C   4.0   -0.03    4.21    4.01    14.96354    63.06378     5.55301
   460  C   4.0    0.25    3.14    3.03    17.62721    62.83662     4.55966
   461  O   6.0   -0.27    1.20    1.80    18.24736    64.15921     2.70381
   462  O   6.0   -0.31    1.30    1.80    19.08726    61.23625     5.57967
   463  H   1.0    0.11    1.08    1.44     9.80489    62.58776     3.55431
   464  H   1.0    0.07    1.06    1.44    11.24488    65.74615     7.75942
   465  H   1.0    0.06    1.03    1.43    13.49827    65.27449     2.47715
   466  H   1.0    0.06    1.03    1.43    14.80808    67.09218     4.91924
   467  H   1.0    0.05    1.02    1.43    14.97114    63.07494     7.61794
   468  H   1.0    0.07    1.03    1.43    13.93991    61.38924     4.90585
   469  N   5.0   -0.19    3.25    1.97     5.10533    69.66657    10.49653
   470  C   4.0    0.05    4.31    4.22     6.27175    70.37504    12.81508
   471  C   4.0    0.09    3.27    3.05     7.32210    73.05483    12.61038
   472  O   6.0   -0.27    1.13    1.80     7.23269    74.38574    14.50836
   473  C   4.0   -0.02    4.37    4.33     8.51809    68.78871    13.34344
   474  C   4.0    0.26    3.15    3.03     7.71756    66.18713    14.36666
   475  O   6.0   -0.30    1.23    1.80     5.49343    65.83502    15.00696
   476  O   6.0   -0.33    1.40    1.80     9.53723    64.65291    14.43949
   477  H   1.0    0.12    1.05    1.44     5.69271    68.06969     9.60268
   478  H   1.0    0.07    1.06    1.44     4.91934    70.33579    14.38356
   479  H   1.0    0.07    1.03    1.43     9.64959    68.53081    11.63630
   480  H   1.0    0.06    1.04    1.43     9.70795    69.67469    14.78113
   481  N   5.0   -0.19    3.21    1.96    32.02813    30.06210    17.35437
   482  C   4.0    0.03    4.20    4.00    32.73959    29.62042    14.75987
   483  C   4.0    0.07    3.24    3.04    35.56771    30.20239    14.48529
   484  O   6.0   -0.28    1.12    1.80    36.63705    31.90105    15.67344
   485  H   1.0    0.09    1.03    1.43    32.09052    31.89874    17.90301
   486  H   1.0    0.04    1.05    1.44    32.44746    27.61876    14.34509
   487  C   4.0   -0.04    4.32    4.24    31.37262    31.36866    12.86084
   488  C   4.0   -0.02    3.52    3.12    29.11605    30.36371    11.49058
   489  C   4.0   -0.04    3.47    3.10    28.93825    28.01331    10.34328
   490  C   4.0   -0.04    3.53    3.13    27.08108    31.97205    11.19166
   491  C   4.0   -0.04    3.45    3.09    26.73105    27.20297     9.22932
   492  C   4.0   -0.05    3.44    3.09    24.87248    31.21797    10.00843
   493  C   4.0    0.07    3.43    3.09    24.61425    28.76514     9.13845
   494  O   6.0   -0.25    2.10    1.84    22.36859    27.80379     8.26862
   495  H   1.0    0.05    1.04    1.43    30.83995    33.08081    13.87635
   496  H   1.0    0.05    1.04    1.43    32.77794    31.91976    11.44553
   497  H   1.0    0.05    1.03    1.43    30.56259    26.78680    10.31437
   498  H   1.0    0.05    1.05    1.44    27.29047    33.84264    11.96249
   499  H   1.0    0.06    1.03    1.43    26.63864    25.39147     8.29887
   500  H   1.0    0.04    1.03    1.43    23.30849    32.50922     9.78494
   501  H   1.0    0.11    1.03    1.43    21.36649    29.08239     7.44552
   502  N   5.0   -0.21    3.17    1.95    19.05511    36.23006    40.92418
   503  C   4.0    0.03    4.21    4.02    18.77885    38.97248    40.51863
   504  C   4.0    0.08    3.20    3.04    16.10572    39.94857    41.06085
   505  O   6.0   -0.28    1.12    1.80    15.90829    41.92591    42.30980
   506  H   1.0    0.08    1.02    1.43    19.60909    35.16692    39.42125
   507  H   1.0    0.05    1.06    1.44    20.00768    39.96090    41.85897
   508  C   4.0   -0.05    4.28    4.16    19.63134    39.58351    37.83029
   509  C   4.0   -0.04    4.20    3.99    19.15133    42.30330    37.05758
   510  C   4.0   -0.00    4.21    4.02    20.45511    42.89305    34.54349
   511  N   5.0   -0.14    3.39    2.02    23.12620    43.42390    34.83694
   512  C   4.0    0.09    3.34    3.06    25.05209    41.81480    34.61865
   513  N   5.0   -0.18    3.26    1.97    24.79613    39.48881    33.75060
   514  N   5.0   -0.18    3.25    1.97    27.39154    42.62541    35.15844
   515  H   1.0    0.05    1.03    1.43    21.64777    39.17746    37.71908
   516  H   1.0    0.05    1.03    1.43    18.59978    38.35847    36.52698
   517  H   1.0    0.05    1.03    1.43    17.12398    42.62604    36.85262
   518  H   1.0    0.05    1.03    1.43    19.81082    43.59928    38.52027
   519  H   1.0    0.05    1.05    1.44    20.17802    41.34442    33.24046
   520  H   1.0    0.06    1.04    1.43    19.57365    44.57739    33.77438
   521  H   1.0    0.08    1.07    1.44    23.50249    45.13740    35.58764
   522  H   1.0    0.11    1.07    1.44    23.15975    38.85324    32.96305
   523  H   1.0    0.08    1.04    1.43    26.33395    38.34131    33.89060
   524  H   1.0    0.08    1.03    1.43    27.66543    44.24061    36.12082
   525  H   1.0    0.08    1.04    1.43    28.77932    41.31223    35.21470
   526  N   5.0   -0.21    3.16    1.95   -10.33331    53.62820     9.71054
   527  C   4.0    0.03    4.19    3.97    -8.30012    55.55668     9.76601
   528  C   4.0    0.08    3.21    3.04    -6.95905    55.67009     7.18613
   529  O   6.0   -0.29    1.11    1.80    -6.37320    57.72631     6.25650
   530  C   4.0   -0.04    4.22    4.05    -6.25715    54.79816    11.75616
   531  C   4.0   -0.03    4.19    3.99    -4.58062    57.07027    12.26478
   532  C   4.0    0.25    3.08    3.02    -2.36604    56.82779    14.16637
   533  O   6.0   -0.29    1.17    1.80    -2.17158    54.84461    15.38418
   534  O   6.0   -0.32    1.28    1.80    -0.90907    58.71403    14.31742
   535  H   1.0    0.08    1.02    1.43   -10.31962    52.25846    11.05083
   536  H   1.0    0.05    1.04    1.43    -9.10131    57.40965    10.18982
   537  H   1.0    0.05    1.02    1.43    -7.18119    54.18707    13.49311
   538  H   1.0    0.05    1.03    1.43    -5.14346    53.25772    10.99711
   539  H   1.0    0.06    1.03    1.43    -3.73374    57.73582    10.49888
   540  H   1.0    0.05    1.03    1.43    -5.73248    58.63328    12.98410
   541  N   5.0   -0.21    3.18    1.95    36.54424    72.70771     8.45668
   542  C   4.0    0.03    4.21    4.03    34.01076    71.49048     8.40819
   543  C   4.0    0.08    3.19    3.04    31.95429    73.57460     8.34143
   544  O   6.0   -0.31    1.15    1.80    30.09712    73.38870     6.89695
   545  H   1.0    0.08    1.02    1.43    37.63423    72.41303    10.00156
   546  H   1.0    0.05    1.05    1.44    33.83457    70.43249     6.64338
   547  C   4.0   -0.05    4.30    4.20    33.74340    69.84069    10.73486
   548  C   4.0   -0.04    4.24    4.08    31.27104    68.38245    10.60095
   549  C   4.0    0.00    4.25    4.09    29.56561    69.10635    12.74997
   550  N   5.0   -0.14    3.45    2.05    30.79038    68.46258    15.10920
   551  C   4.0    0.09    3.37    3.07    30.87816    69.97869    17.12646
   552  N   5.0   -0.18    3.25    1.97    31.18999    72.47397    16.90957
   553  N   5.0   -0.18    3.23    1.96    30.54423    68.86967    19.37805
   554  H   1.0    0.04    1.03    1.43    35.36698    68.57293    10.80955
   555  H   1.0    0.05    1.04    1.43    33.81998    71.04136    12.40831
   556  H   1.0    0.05    1.04    1.43    30.29670    68.75175     8.82457
   557  H   1.0    0.04    1.03    1.43    31.63824    66.36319    10.72994
   558  H   1.0    0.06    1.04    1.44    29.17222    71.12418    12.69405
   559  H   1.0    0.06    1.02    1.43    27.74239    68.13922    12.59805
   560  H   1.0    0.08    1.08    1.44    30.73601    66.59293    15.50885
   561  H   1.0    0.10    1.04    1.43    30.90509    73.39696    15.27462
   562  H   1.0    0.08    1.03    1.43    31.37930    73.49109    18.50669
   563  H   1.0    0.08    1.04    1.43    31.07402    67.03443    19.47338
   564  H   1.0    0.08    1.02    1.43    31.32668    69.91840    20.85811
   565  N   5.0   -0.21    3.16    1.95    27.05645    74.57779     2.56604
   566  C   4.0    0.03    4.19    3.98    24.32917    74.50201     2.98739
   567  C   4.0    0.08    3.24    3.04    22.99005    76.88612     2.10260
   568  O   6.0   -0.28    1.11    1.80    20.85062    76.88705     1.20061
   569  C   4.0   -0.03    4.27    4.15    23.43208    74.22696     5.76358
   570  C   4.0   -0.02    4.16    3.93    24.06924    71.67681     6.91371
   571  C   4.0    0.25    3.10    3.02    23.44579    71.51403     9.78470
   572  O   6.0   -0.32    1.25    1.80    22.77517    73.51336    10.89169
   573  O   6.0   -0.30    1.17    1.80    23.71195    69.36810    10.72771
   574  H   1.0    0.12    1.06    1.44    28.19905    74.38201     4.10099
   575  H   1.0    0.06    1.05    1.44    23.53788    72.94225     1.86403
   576  H   1.0    0.06    1.03    1.43    24.31554    75.72125     6.88161
   577  H   1.0    0.07    1.04    1.43    21.38837    74.48512     5.74943
   578  H   1.0    0.06    1.02    1.43    23.05546    70.16891     5.94059
   579  H   1.0    0.06    1.03    1.43    26.09179    71.30239     6.73295
   580  H   1.0    0.09    1.07    1.44    26.44050    44.39402    -5.19020
   581  H   1.0    0.07    1.04    1.43     6.55983    31.90925     6.25774
   582  H   1.0    0.05    1.05    1.44    26.49114    36.43822    -0.25751
   583  H   1.0    0.09    1.07    1.44     8.15368    53.28608    -1.00301
   584  H   1.0    0.06    1.05    1.44    11.50585    58.80673    -1.90793
   585  H   1.0    0.09    1.08    1.44     3.73927    61.29482     2.02491
   586  H   1.0    0.06    1.04    1.43     9.03560    68.67444     3.49457
   587  H   1.0    0.11    1.08    1.44     3.44126    69.42269    10.74944
   588  H   1.0    0.07    1.04    1.43     8.04633    73.66341    10.97448
   589  H   1.0    0.09    1.07    1.44    30.43212    29.53006    17.60384
   590  H   1.0    0.05    1.05    1.44    36.63131    29.18398    13.30095
   591  H   1.0    0.09    1.07    1.44    20.22099    35.94910    42.13015
   592  H   1.0    0.06    1.04    1.43    14.60434    38.99969    40.41544
   593  H   1.0    0.09    1.07    1.44   -11.84403    54.39097     9.87923
   594  H   1.0    0.05    1.04    1.43    -6.55983    54.07328     6.25774
   595  H   1.0    0.09    1.06    1.44    37.46733    72.14996     7.14162
   596  H   1.0    0.06    1.04    1.43    32.10626    75.08822     9.46256
   597  H   1.0    0.10    1.07    1.44    27.50310    73.32059     1.51129
   598  H   1.0    0.06    1.05    1.44    23.85320    78.56146     2.24137

  Z AO/shell   Hii/eV     exponent
  1     Wed Apr 25 08:07:45 CEST 2018   EN: 2.200 GM2: 0.406  GM3: 0.0800  RAES: 1.40
     1s    -10.707211    1.230000
  6     Wed Apr 25 08:07:45 CEST 2018   EN: 2.550 GM2: 0.538  GM3: 0.1500  RAES: 3.00
     2s    -13.970922    2.096432
     2p    -10.063292    1.800000
  7     Wed Apr 25 08:07:45 CEST 2018   EN: 3.040 GM2: 0.461  GM3:-0.0640  RAES: 1.90
     2s    -16.686243    2.339881
     2p    -12.523956    2.014332
  8     Wed Apr 25 08:07:45 CEST 2018   EN: 3.440 GM2: 0.452  GM3:-0.0517  RAES: 1.80
     2s    -20.229985    2.439742
     2p    -15.503117    2.137023
 16     Tue Apr 24 11:44:34 CEST 2018   EN: 2.580 GM2: 0.340  GM3:-0.0502  RAES: 3.10
     3s    -20.029654    1.981333
     3p    -11.377694    2.025643
     3d     -0.420282    1.702555
 no old-style atom pair restraining (fixing) potential

molecular fragmentation (1/2 indicates fragments):
111111111111111111111111111111111111111111111111111111111111111111111111
111111111111111111111111111111111111111111111111111111111111111111111111
111111111111111111111111111111111111111111111111111111111111111111111111
111111111111111111111111111111111111111111112222222222222222222222222222
222222222222222222222222222222222222222222222222222222222222222222222222
222222222222222222222222222222222222222222222222222222222222222222222222
222222222222222222222222222222222222222222222222222222222222222222222222
222222222222222222222222222222222222222222222222222222222222222222222222
2221122222222222222222
# atoms in fragment 1/2:   262   336
 fragment masses (1/2) :     1852.16     2289.45
CMA distance (Bohr)    :   9.863
constraining FC (au)   :  0.0500
           ------------------------------------------------- 
          |        Self-Consistent Charge Iterations        |
           ------------------------------------------------- 

 Ncao       : 1459
 Nao        : 1458
 Nshell     : 884
 Nel        : 1648
 T(el)      :   500.0
 intcut     :    35.0
 scfconv/Eh :  0.100E-06
   qconv/e  :  0.100E-04
 intneglect :  0.100E-08
 broydamp   :      0.400
 iter      E             dE          RMSdq      gap      omega  full diag
   1   -956.2508793 -0.956251E+03  0.495E+00    2.83       0.0  T
   2   -958.5615481 -0.231067E+01  0.235E+00    1.45       1.0  T
   3   -958.7201083 -0.158560E+00  0.128E+00    1.87       1.0  T
   4   -958.9072601 -0.187152E+00  0.304E-01    1.01       1.0  T
   5   -958.9154097 -0.814953E-02  0.151E-01    1.16       1.0  T
   6   -958.9186251 -0.321546E-02  0.611E-02    1.06       1.0  T
   7   -958.9191203 -0.495150E-03  0.310E-02    1.08       1.0  T
   8   -958.9192076 -0.873501E-04  0.142E-02    1.08       1.0  T
   9   -958.9192457 -0.380568E-04  0.633E-03    1.08       1.0  T
  10   -958.9192504 -0.473544E-05  0.317E-03    1.08       1.3  T
  11   -958.9192517 -0.128578E-05  0.137E-03    1.08       3.0  T
  12   -958.9192520 -0.260791E-06  0.656E-04    1.08       6.2  T
  13   -958.9192520 -0.539110E-07  0.324E-04    1.08      12.6  T
  14   -958.9192520 -0.988666E-08  0.143E-04    1.08      28.5  T
  15   -958.9192520 -0.332886E-08  0.721E-05    1.08      56.7  T
  16   -958.9192520 -0.641307E-09  0.376E-05    1.08     108.9  T
speedup  8.51
cpu  time for SCC    1 m  4.8 s
wall time for SCC    0 m  7.6 s

   *** convergence criteria satisfied after 16 iterations ***

          eigenvalues
 #    :         812        813        814        815        816        817        818        819
 occ. :        2.000      2.000      2.000      2.000      2.000      2.000      2.000      2.000
 eps  :        -9.952     -9.950     -9.930     -9.916     -9.908     -9.884     -9.822     -9.821
 #    :         820        821        822        823        824        825        826        827
 occ. :        2.000      2.000      2.000      2.000      2.000      0.000      0.000      0.000
 eps  :        -9.716     -9.632     -9.613     -9.462     -9.414     -8.331     -8.022     -7.951
 #    :         828        829        830        831        832        833        834        835
 occ. :        0.000      0.000      0.000      0.000      0.000      0.000      0.000      0.000
 eps  :        -7.916     -7.914     -7.910     -7.696     -7.654     -7.530     -7.469     -6.634


   #   Z            q   n(s)   n(p)   n(d)      C6AA      α(0)
   1   7 N     -0.399  1.323  4.076  0.000    30.341     8.181
   2   6 C      0.032  1.053  2.914  0.000    20.048     6.377
   3   6 C      0.280  1.042  2.679  0.000    22.268     7.728
   4   8 O     -0.479  1.717  4.762  0.000    23.327     6.476
   5   6 C     -0.066  1.059  3.007  0.000    21.742     6.635
   6   6 C     -0.006  1.051  2.956  0.000    20.655     6.464
   7   6 C     -0.112  1.039  3.073  0.000    22.674     6.787
   8   6 C     -0.115  1.045  3.070  0.000    22.753     6.800
   9   1 H      0.174  0.826  0.000  0.000     1.250     1.751
  10   1 H      0.037  0.963  0.000  0.000     2.491     2.468
  11   1 H      0.043  0.957  0.000  0.000     2.406     2.426
  12   1 H      0.039  0.961  0.000  0.000     2.462     2.454
  13   1 H      0.017  0.983  0.000  0.000     2.783     2.609
  14   1 H      0.036  0.964  0.000  0.000     2.510     2.477
  15   1 H      0.028  0.972  0.000  0.000     2.610     2.526
  16   1 H      0.047  0.953  0.000  0.000     2.355     2.400
  17   1 H      0.034  0.966  0.000  0.000     2.531     2.488
  18   1 H      0.046  0.954  0.000  0.000     2.373     2.409
  19   1 H      0.035  0.965  0.000  0.000     2.510     2.478
  20   7 N     -0.185  1.250  3.935  0.000    25.018     7.429
  21   6 C      0.018  1.068  2.913  0.000    20.272     6.411
  22   6 C      0.277  1.036  2.687  0.000    22.308     7.734
  23   8 O     -0.492  1.754  4.738  0.000    23.617     6.516
  24   6 C     -0.061  1.046  3.016  0.000    21.669     6.626
  25   6 C     -0.102  1.055  3.047  0.000    22.435     6.741
  26   6 C      0.298  1.028  2.674  0.000    21.940     7.670
  27   8 O     -0.499  1.736  4.763  0.000    23.771     6.537
  28   7 N     -0.273  1.263  4.010  0.000    27.073     7.728
  29   1 H      0.179  0.821  0.000  0.000     1.222     1.731
  30   1 H      0.083  0.917  0.000  0.000     1.953     2.185
  31   1 H      0.062  0.938  0.000  0.000     2.181     2.310
  32   1 H      0.061  0.939  0.000  0.000     2.183     2.310
  33   1 H      0.069  0.931  0.000  0.000     2.101     2.267
  34   1 H      0.062  0.938  0.000  0.000     2.176     2.307
  35   1 H      0.225  0.775  0.000  0.000     0.987     1.556
  36   1 H      0.243  0.757  0.000  0.000     0.909     1.494
  37   7 N     -0.182  1.253  3.929  0.000    24.942     7.417
  38   6 C      0.023  1.061  2.916  0.000    20.184     6.397
  39   6 C      0.263  1.046  2.691  0.000    22.574     7.781
  40   8 O     -0.479  1.725  4.754  0.000    23.325     6.475
  41   6 C     -0.023  1.065  2.958  0.000    20.953     6.510
  42   6 C     -0.060  1.052  3.008  0.000    21.658     6.625
  43   6 C     -0.129  1.045  3.085  0.000    23.039     6.844
  44   6 C     -0.106  1.039  3.067  0.000    22.587     6.778
  45   1 H      0.245  0.755  0.000  0.000     0.902     1.488
  46   1 H      0.049  0.951  0.000  0.000     2.329     2.387
  47   1 H      0.056  0.944  0.000  0.000     2.247     2.344
  48   1 H      0.037  0.963  0.000  0.000     2.483     2.464
  49   1 H      0.023  0.977  0.000  0.000     2.681     2.561
  50   1 H      0.050  0.950  0.000  0.000     2.324     2.384
  51   1 H      0.057  0.943  0.000  0.000     2.234     2.337
  52   1 H      0.052  0.948  0.000  0.000     2.295     2.369
  53   1 H      0.036  0.964  0.000  0.000     2.503     2.474
  54   1 H      0.043  0.957  0.000  0.000     2.404     2.425
  55   1 H      0.035  0.965  0.000  0.000     2.516     2.481
  56   7 N     -0.169  1.250  3.919  0.000    24.663     7.376
  57   6 C     -0.000  1.069  2.931  0.000    20.585     6.460
  58   6 C      0.266  1.034  2.700  0.000    22.506     7.770
  59   8 O     -0.482  1.739  4.743  0.000    23.388     6.484
  60   6 C     -0.086  1.059  3.027  0.000    22.135     6.698
  61   6 C     -0.101  1.065  3.037  0.000    22.434     6.744
  62   6 C     -0.026  1.053  2.972  0.000    21.122     6.560
  63   7 N     -0.145  1.216  3.928  0.000    24.135     7.296
  64   6 C      0.226  1.024  2.750  0.000    23.249     7.894
  65   7 N     -0.244  1.251  3.994  0.000    26.374     7.627
  66   7 N     -0.248  1.228  4.020  0.000    26.466     7.641
  67   1 H      0.220  0.780  0.000  0.000     1.009     1.573
  68   1 H      0.095  0.905  0.000  0.000     1.827     2.114
  69   1 H      0.056  0.944  0.000  0.000     2.244     2.343
  70   1 H      0.067  0.933  0.000  0.000     2.119     2.277
  71   1 H      0.097  0.903  0.000  0.000     1.808     2.103
  72   1 H      0.087  0.913  0.000  0.000     1.907     2.160
  73   1 H      0.066  0.934  0.000  0.000     2.131     2.283
  74   1 H      0.070  0.930  0.000  0.000     2.088     2.260
  75   1 H      0.257  0.743  0.000  0.000     0.856     1.450
  76   1 H      0.217  0.783  0.000  0.000     1.026     1.586
  77   1 H      0.232  0.768  0.000  0.000     0.955     1.531
  78   1 H      0.273  0.727  0.000  0.000     0.798     1.399
  79   1 H      0.247  0.753  0.000  0.000     0.893     1.481
  80   7 N     -0.154  1.239  3.915  0.000    24.330     7.326
  81   6 C     -0.065  1.056  3.009  0.000    21.804     6.657
  82   6 C      0.270  1.038  2.692  0.000    22.436     7.756
  83   8 O     -0.497  1.748  4.749  0.000    23.716     6.529
  84   1 H      0.252  0.748  0.000  0.000     0.876     1.466
  85   1 H      0.120  0.880  0.000  0.000     1.611     1.985
  86   1 H      0.124  0.876  0.000  0.000     1.578     1.965
  87   7 N     -0.189  1.259  3.930  0.000    25.098     7.441
  88   6 C      0.009  1.067  2.924  0.000    20.436     6.438
  89   6 C      0.275  1.045  2.679  0.000    22.345     7.741
  90   8 O     -0.527  1.757  4.770  0.000    24.381     6.620
  91   1 H      0.248  0.752  0.000  0.000     0.890     1.477
  92   1 H      0.082  0.918  0.000  0.000     1.955     2.186
  93   6 C     -0.104  1.062  3.042  0.000    22.484     6.750
  94   6 C     -0.074  1.046  3.028  0.000    21.922     6.666
  95   6 C     -0.059  1.059  3.000  0.000    21.723     6.650
  96   7 N     -0.139  1.206  3.933  0.000    24.012     7.278
  97   6 C      0.220  1.024  2.756  0.000    23.364     7.914
  98   7 N     -0.262  1.245  4.017  0.000    26.796     7.688
  99   7 N     -0.261  1.244  4.018  0.000    26.776     7.685
 100   1 H      0.101  0.899  0.000  0.000     1.777     2.085
 101   1 H      0.088  0.912  0.000  0.000     1.894     2.152
 102   1 H      0.039  0.961  0.000  0.000     2.461     2.453
 103   1 H      0.048  0.952  0.000  0.000     2.351     2.398
 104   1 H      0.123  0.877  0.000  0.000     1.586     1.969
 105   1 H      0.106  0.894  0.000  0.000     1.729     2.056
 106   1 H      0.218  0.782  0.000  0.000     1.019     1.581
 107   1 H      0.267  0.733  0.000  0.000     0.822     1.420
 108   1 H      0.264  0.736  0.000  0.000     0.830     1.427
 109   1 H      0.220  0.780  0.000  0.000     1.009     1.573
 110   1 H      0.233  0.767  0.000  0.000     0.951     1.527
 111   7 N     -0.191  1.264  3.927  0.000    25.143     7.447
 112   6 C      0.039  1.051  2.909  0.000    19.914     6.354
 113   6 C      0.274  1.053  2.673  0.000    22.366     7.745
 114   8 O     -0.527  1.756  4.771  0.000    24.388     6.621
 115   6 C     -0.058  1.049  3.008  0.000    21.609     6.618
 116   6 C     -0.118  1.067  3.050  0.000    22.754     6.792
 117   6 C      0.361  1.031  2.608  0.000    20.881     7.478
 118   8 O     -0.671  1.790  4.881  0.000    27.932     7.086
 119   8 O     -0.638  1.759  4.879  0.000    27.073     6.976
 120   1 H      0.257  0.743  0.000  0.000     0.856     1.449
 121   1 H      0.049  0.951  0.000  0.000     2.330     2.387
 122   1 H      0.057  0.943  0.000  0.000     2.229     2.335
 123   1 H      0.021  0.979  0.000  0.000     2.712     2.575
 124   1 H      0.091  0.909  0.000  0.000     1.870     2.139
 125   1 H      0.026  0.974  0.000  0.000     2.642     2.542
 126   7 N     -0.188  1.262  3.926  0.000    25.069     7.436
 127   6 C      0.021  1.060  2.919  0.000    20.232     6.405
 128   6 C      0.271  1.047  2.683  0.000    22.424     7.755
 129   8 O     -0.516  1.757  4.760  0.000    24.152     6.589
 130   6 C     -0.101  1.067  3.034  0.000    22.429     6.743
 131   6 C     -0.085  1.060  3.025  0.000    22.119     6.697
 132   6 C     -0.040  1.069  2.970  0.000    21.373     6.598
 133   7 N     -0.171  1.228  3.943  0.000    24.693     7.380
 134   6 C      0.234  1.014  2.752  0.000    23.099     7.869
 135   7 N     -0.266  1.233  4.033  0.000    26.886     7.701
 136   7 N     -0.282  1.246  4.035  0.000    27.280     7.757
 137   1 H      0.245  0.755  0.000  0.000     0.903     1.489
 138   1 H      0.059  0.941  0.000  0.000     2.213     2.327
 139   1 H      0.092  0.908  0.000  0.000     1.858     2.131
 140   1 H      0.097  0.903  0.000  0.000     1.811     2.105
 141   1 H      0.067  0.933  0.000  0.000     2.118     2.276
 142   1 H      0.063  0.937  0.000  0.000     2.162     2.299
 143   1 H      0.117  0.883  0.000  0.000     1.636     2.000
 144   1 H      0.069  0.931  0.000  0.000     2.096     2.264
 145   1 H      0.233  0.767  0.000  0.000     0.954     1.530
 146   1 H      0.240  0.760  0.000  0.000     0.923     1.505
 147   1 H      0.232  0.768  0.000  0.000     0.955     1.531
 148   1 H      0.218  0.782  0.000  0.000     1.018     1.581
 149   1 H      0.244  0.756  0.000  0.000     0.909     1.493
 150   7 N     -0.172  1.247  3.924  0.000    24.716     7.384
 151   6 C      0.035  1.049  2.916  0.000    19.989     6.365
 152   6 C      0.277  1.050  2.673  0.000    22.316     7.736
 153   8 O     -0.507  1.747  4.760  0.000    23.947     6.561
 154   6 C     -0.082  1.064  3.018  0.000    22.063     6.687
 155   6 C      0.005  1.085  2.910  0.000    27.917     8.666
 156   6 C     -0.039  1.079  2.961  0.000    28.980     8.830
 157   6 C     -0.037  1.087  2.951  0.000    28.929     8.820
 158   6 C     -0.038  1.078  2.960  0.000    28.940     8.821
 159   6 C     -0.038  1.086  2.952  0.000    28.935     8.821
 160   6 C     -0.052  1.083  2.969  0.000    29.288     8.875
 161   1 H      0.249  0.751  0.000  0.000     0.889     1.477
 162   1 H      0.066  0.934  0.000  0.000     2.127     2.281
 163   1 H      0.078  0.922  0.000  0.000     1.996     2.209
 164   1 H      0.072  0.928  0.000  0.000     2.063     2.246
 165   1 H      0.019  0.981  0.000  0.000     2.749     2.593
 166   1 H      0.037  0.963  0.000  0.000     2.487     2.466
 167   1 H      0.048  0.952  0.000  0.000     2.347     2.396
 168   1 H      0.050  0.950  0.000  0.000     2.323     2.383
 169   1 H      0.068  0.932  0.000  0.000     2.109     2.271
 170   7 N     -0.202  1.273  3.930  0.000    25.400     7.485
 171   6 C      0.036  1.068  2.896  0.000    19.992     6.369
 172   6 C      0.275  1.050  2.675  0.000    22.344     7.740
 173   8 O     -0.516  1.743  4.772  0.000    24.131     6.586
 174   1 H      0.236  0.764  0.000  0.000     0.939     1.518
 175   1 H      0.067  0.933  0.000  0.000     2.124     2.279
 176   6 C     -0.048  1.048  2.999  0.000    21.422     6.588
 177   6 C     -0.094  1.059  3.035  0.000    22.291     6.722
 178   6 C      0.363  1.024  2.612  0.000    20.834     7.470
 179   8 O     -0.583  1.751  4.831  0.000    25.703     6.797
 180   8 O     -0.626  1.776  4.849  0.000    26.756     6.935
 181   1 H      0.037  0.963  0.000  0.000     2.490     2.468
 182   1 H      0.028  0.972  0.000  0.000     2.620     2.531
 183   1 H      0.058  0.942  0.000  0.000     2.218     2.329
 184   1 H      0.038  0.962  0.000  0.000     2.474     2.460
 185   7 N     -0.184  1.258  3.926  0.000    24.977     7.423
 186   6 C      0.034  1.063  2.904  0.000    20.008     6.369
 187   6 C      0.275  1.044  2.681  0.000    22.352     7.743
 188   8 O     -0.522  1.769  4.753  0.000    24.271     6.605
 189   6 C     -0.065  1.048  3.018  0.000    21.708     6.625
 190   6 C      0.006  1.049  2.945  0.000    20.468     6.440
 191  16 S     -0.225  1.912  4.261  0.053   150.672    20.660
 192   6 C     -0.067  1.057  3.010  0.000    21.864     6.670
 193   1 H      0.224  0.776  0.000  0.000     0.990     1.558
 194   1 H      0.050  0.950  0.000  0.000     2.321     2.382
 195   1 H      0.069  0.931  0.000  0.000     2.102     2.267
 196   1 H      0.073  0.927  0.000  0.000     2.056     2.242
 197   1 H      0.035  0.965  0.000  0.000     2.512     2.479
 198   1 H      0.037  0.963  0.000  0.000     2.485     2.465
 199   1 H      0.085  0.915  0.000  0.000     1.925     2.169
 200   1 H      0.069  0.931  0.000  0.000     2.094     2.263
 201   1 H      0.059  0.941  0.000  0.000     2.214     2.327
 202   7 N     -0.172  1.241  3.931  0.000    24.720     7.384
 203   6 C      0.033  1.053  2.915  0.000    20.022     6.370
 204   6 C      0.281  1.039  2.680  0.000    22.245     7.724
 205   8 O     -0.512  1.753  4.759  0.000    24.051     6.575
 206   6 C     -0.076  1.059  3.017  0.000    21.958     6.671
 207   6 C      0.013  1.081  2.906  0.000    27.719     8.636
 208   6 C     -0.038  1.080  2.958  0.000    28.934     8.823
 209   6 C     -0.036  1.081  2.955  0.000    28.903     8.818
 210   6 C     -0.032  1.072  2.960  0.000    28.788     8.799
 211   6 C     -0.045  1.082  2.964  0.000    29.126     8.851
 212   6 C     -0.036  1.074  2.962  0.000    28.900     8.816
 213   1 H      0.230  0.770  0.000  0.000     0.967     1.540
 214   1 H      0.058  0.942  0.000  0.000     2.218     2.329
 215   1 H      0.069  0.931  0.000  0.000     2.099     2.265
 216   1 H      0.073  0.927  0.000  0.000     2.057     2.243
 217   1 H      0.020  0.980  0.000  0.000     2.728     2.583
 218   1 H      0.049  0.951  0.000  0.000     2.332     2.388
 219   1 H      0.035  0.965  0.000  0.000     2.512     2.478
 220   1 H      0.052  0.948  0.000  0.000     2.300     2.372
 221   1 H      0.044  0.956  0.000  0.000     2.397     2.421
 222   7 N     -0.193  1.256  3.936  0.000    25.180     7.453
 223   6 C      0.024  1.072  2.904  0.000    20.181     6.396
 224   6 C      0.275  1.049  2.677  0.000    22.355     7.742
 225   8 O     -0.504  1.760  4.744  0.000    23.881     6.552
 226   1 H      0.230  0.770  0.000  0.000     0.966     1.540
 227   1 H      0.090  0.910  0.000  0.000     1.882     2.145
 228   6 C     -0.079  1.052  3.027  0.000    22.003     6.677
 229   6 C     -0.085  1.049  3.036  0.000    22.111     6.693
 230   6 C     -0.012  1.046  2.966  0.000    20.867     6.516
 231   7 N     -0.164  1.238  3.926  0.000    24.541     7.358
 232   6 C      0.243  1.023  2.734  0.000    22.925     7.839
 233   7 N     -0.242  1.229  4.013  0.000    26.326     7.620
 234   7 N     -0.296  1.328  3.969  0.000    27.634     7.807
 235   1 H      0.082  0.918  0.000  0.000     1.958     2.188
 236   1 H      0.056  0.944  0.000  0.000     2.246     2.344
 237   1 H      0.070  0.930  0.000  0.000     2.081     2.256
 238   1 H      0.089  0.911  0.000  0.000     1.887     2.148
 239   1 H      0.049  0.951  0.000  0.000     2.331     2.387
 240   1 H      0.091  0.909  0.000  0.000     1.868     2.137
 241   1 H      0.236  0.764  0.000  0.000     0.940     1.519
 242   1 H      0.212  0.788  0.000  0.000     1.048     1.604
 243   1 H      0.229  0.771  0.000  0.000     0.971     1.544
 244   1 H      0.248  0.752  0.000  0.000     0.892     1.479
 245   1 H      0.267  0.733  0.000  0.000     0.822     1.420
 246   7 N     -0.181  1.260  3.921  0.000    24.917     7.414
 247   6 C      0.034  1.072  2.894  0.000    20.014     6.372
 248   6 C      0.215  1.086  2.699  0.000    23.449     7.930
 249   8 O     -0.366  1.753  4.613  0.000    21.013     6.146
 250   6 C     -0.046  1.053  2.994  0.000    21.403     6.587
 251   6 C     -0.092  1.066  3.026  0.000    22.253     6.716
 252   6 C      0.371  1.024  2.605  0.000    20.705     7.446
 253   8 O     -0.636  1.768  4.868  0.000    27.027     6.970
 254   8 O     -0.664  1.779  4.885  0.000    27.740     7.061
 255   1 H      0.216  0.784  0.000  0.000     1.028     1.588
 256   1 H      0.084  0.916  0.000  0.000     1.935     2.175
 257   1 H      0.060  0.940  0.000  0.000     2.197     2.318
 258   1 H      0.040  0.960  0.000  0.000     2.447     2.446
 259   1 H      0.020  0.980  0.000  0.000     2.732     2.585
 260   1 H      0.035  0.965  0.000  0.000     2.513     2.479
 261   8 O     -0.632  1.741  4.892  0.000    25.974     6.878
 262   1 H      0.282  0.718  0.000  0.000     0.779     1.386
 263   1 H      0.302  0.698  0.000  0.000     0.714     1.328
 264   8 O     -0.626  1.751  4.874  0.000    25.812     6.857
 265   1 H      0.341  0.659  0.000  0.000     0.609     1.226
 266   1 H      0.302  0.698  0.000  0.000     0.716     1.329
 267   8 O     -0.651  1.769  4.882  0.000    26.430     6.939
 268   1 H      0.310  0.690  0.000  0.000     0.692     1.307
 269   1 H      0.315  0.685  0.000  0.000     0.677     1.292
 270   8 O     -0.620  1.730  4.890  0.000    25.681     6.840
 271   1 H      0.321  0.679  0.000  0.000     0.660     1.276
 272   1 H      0.300  0.700  0.000  0.000     0.720     1.333
 273   8 O     -0.629  1.742  4.887  0.000    25.887     6.867
 274   1 H      0.331  0.669  0.000  0.000     0.636     1.253
 275   1 H      0.301  0.699  0.000  0.000     0.719     1.332
 276   8 O     -0.620  1.740  4.880  0.000    25.663     6.837
 277   1 H      0.327  0.673  0.000  0.000     0.646     1.262
 278   1 H      0.318  0.682  0.000  0.000     0.670     1.286
 279   8 O     -0.633  1.773  4.860  0.000    25.991     6.881
 280   1 H      0.342  0.658  0.000  0.000     0.607     1.224
 281   1 H      0.327  0.673  0.000  0.000     0.646     1.263
 282   8 O     -0.595  1.717  4.878  0.000    25.077     6.759
 283   1 H      0.313  0.687  0.000  0.000     0.684     1.299
 284   1 H      0.296  0.704  0.000  0.000     0.734     1.346
 285   8 O     -0.656  1.778  4.878  0.000    26.559     6.956
 286   1 H      0.328  0.672  0.000  0.000     0.641     1.258
 287   1 H      0.328  0.672  0.000  0.000     0.643     1.260
 288   8 O     -0.587  1.739  4.848  0.000    24.888     6.733
 289   1 H      0.328  0.672  0.000  0.000     0.643     1.260
 290   1 H      0.311  0.689  0.000  0.000     0.689     1.304
 291   8 O     -0.660  1.781  4.879  0.000    26.672     6.970
 292   1 H      0.318  0.682  0.000  0.000     0.669     1.285
 293   1 H      0.321  0.679  0.000  0.000     0.661     1.277
 294   8 O     -0.646  1.775  4.871  0.000    26.320     6.924
 295   1 H      0.306  0.694  0.000  0.000     0.704     1.318
 296   1 H      0.318  0.682  0.000  0.000     0.668     1.284
 297   8 O     -0.648  1.768  4.881  0.000    26.379     6.932
 298   1 H      0.332  0.668  0.000  0.000     0.632     1.249
 299   1 H      0.320  0.680  0.000  0.000     0.665     1.281
 300   8 O     -0.628  1.752  4.876  0.000    25.876     6.866
 301   1 H      0.318  0.682  0.000  0.000     0.669     1.285
 302   1 H      0.326  0.674  0.000  0.000     0.647     1.263
 303   8 O     -0.627  1.758  4.869  0.000    25.837     6.860
 304   1 H      0.301  0.699  0.000  0.000     0.718     1.331
 305   1 H      0.298  0.702  0.000  0.000     0.727     1.340
 306   8 O     -0.625  1.758  4.867  0.000    25.802     6.856
 307   1 H      0.275  0.725  0.000  0.000     0.800     1.405
 308   1 H      0.328  0.672  0.000  0.000     0.644     1.260
 309   8 O     -0.620  1.736  4.883  0.000    25.668     6.838
 310   1 H      0.325  0.675  0.000  0.000     0.650     1.267
 311   1 H      0.318  0.682  0.000  0.000     0.668     1.284
 312   8 O     -0.641  1.742  4.899  0.000    26.194     6.907
 313   1 H      0.314  0.686  0.000  0.000     0.682     1.297
 314   1 H      0.309  0.691  0.000  0.000     0.694     1.308
 315   8 O     -0.618  1.735  4.883  0.000    25.629     6.833
 316   1 H      0.326  0.674  0.000  0.000     0.647     1.264
 317   1 H      0.286  0.714  0.000  0.000     0.766     1.375
 318   8 O     -0.634  1.758  4.875  0.000    26.004     6.882
 319   1 H      0.318  0.682  0.000  0.000     0.669     1.284
 320   1 H      0.311  0.689  0.000  0.000     0.689     1.303
 321   8 O     -0.612  1.739  4.873  0.000    25.479     6.813
 322   1 H      0.325  0.675  0.000  0.000     0.651     1.267
 323   1 H      0.304  0.696  0.000  0.000     0.708     1.321
 324   8 O     -0.619  1.745  4.874  0.000    25.638     6.834
 325   1 H      0.348  0.652  0.000  0.000     0.592     1.208
 326   1 H      0.357  0.643  0.000  0.000     0.573     1.189
 327   8 O     -0.635  1.742  4.893  0.000    26.053     6.889
 328   1 H      0.310  0.690  0.000  0.000     0.691     1.306
 329   1 H      0.309  0.691  0.000  0.000     0.695     1.309
 330   7 N     -0.185  1.252  3.933  0.000    25.005     7.427
 331   6 C     -0.027  1.084  2.943  0.000    21.082     6.541
 332   6 C      0.263  1.035  2.702  0.000    22.565     7.779
 333   8 O     -0.467  1.728  4.739  0.000    23.075     6.440
 334   6 C     -0.081  1.056  3.025  0.000    22.043     6.684
 335   6 C     -0.105  1.066  3.039  0.000    22.510     6.756
 336   6 C      0.363  1.029  2.608  0.000    20.842     7.471
 337   8 O     -0.600  1.738  4.862  0.000    26.120     6.852
 338   8 O     -0.653  1.793  4.860  0.000    27.461     7.026
 339   1 H      0.290  0.710  0.000  0.000     0.745     1.352
 340   1 H      0.322  0.678  0.000  0.000     0.652     1.265
 341   1 H      0.286  0.714  0.000  0.000     0.756     1.362
 342   1 H      0.117  0.883  0.000  0.000     1.634     1.999
 343   1 H      0.090  0.910  0.000  0.000     1.879     2.144
 344   1 H      0.082  0.918  0.000  0.000     1.954     2.186
 345   1 H      0.020  0.980  0.000  0.000     2.734     2.586
 346   1 H      0.029  0.971  0.000  0.000     2.599     2.521
 347   7 N     -0.130  1.230  3.900  0.000    23.827     7.250
 348   6 C      0.001  1.065  2.935  0.000    20.577     6.459
 349   6 C      0.266  1.048  2.686  0.000    22.515     7.770
 350   8 O     -0.493  1.755  4.738  0.000    23.631     6.517
 351   1 H      0.225  0.775  0.000  0.000     0.989     1.558
 352   1 H      0.104  0.896  0.000  0.000     1.748     2.068
 353   6 C     -0.081  1.056  3.025  0.000    22.040     6.682
 354   6 C     -0.003  1.071  2.933  0.000    28.103     8.695
 355   6 C     -0.048  1.078  2.970  0.000    29.202     8.862
 356   6 C     -0.053  1.083  2.970  0.000    29.315     8.880
 357   6 C     -0.050  1.076  2.974  0.000    29.236     8.867
 358   6 C     -0.074  1.077  2.997  0.000    29.836     8.957
 359   6 C      0.150  1.043  2.806  0.000    24.732     8.150
 360   8 O     -0.442  1.727  4.716  0.000    21.685     6.286
 361   1 H      0.091  0.909  0.000  0.000     1.869     2.138
 362   1 H      0.049  0.951  0.000  0.000     2.328     2.386
 363   1 H      0.043  0.957  0.000  0.000     2.415     2.430
 364   1 H      0.071  0.929  0.000  0.000     2.077     2.253
 365   1 H      0.035  0.965  0.000  0.000     2.510     2.477
 366   1 H      0.056  0.944  0.000  0.000     2.247     2.344
 367   1 H      0.321  0.679  0.000  0.000     0.662     1.278
 368   7 N     -0.186  1.257  3.929  0.000    25.034     7.431
 369   6 C      0.026  1.060  2.913  0.000    20.138     6.391
 370   6 C      0.259  1.052  2.689  0.000    22.631     7.790
 371   8 O     -0.500  1.737  4.763  0.000    23.786     6.539
 372   6 C     -0.066  1.049  3.017  0.000    21.746     6.636
 373   6 C      0.011  1.078  2.911  0.000    27.771     8.644
 374   6 C     -0.044  1.082  2.962  0.000    29.086     8.844
 375   6 C     -0.041  1.083  2.958  0.000    29.021     8.835
 376   6 C     -0.044  1.079  2.965  0.000    29.094     8.846
 377   6 C     -0.036  1.080  2.957  0.000    28.905     8.817
 378   6 C     -0.045  1.079  2.966  0.000    29.114     8.848
 379   1 H      0.239  0.761  0.000  0.000     0.926     1.507
 380   1 H      0.080  0.920  0.000  0.000     1.978     2.200
 381   1 H      0.044  0.956  0.000  0.000     2.400     2.423
 382   1 H      0.045  0.955  0.000  0.000     2.378     2.411
 383   1 H      0.040  0.960  0.000  0.000     2.449     2.447
 384   1 H      0.028  0.972  0.000  0.000     2.608     2.525
 385   1 H      0.064  0.936  0.000  0.000     2.155     2.295
 386   1 H      0.039  0.961  0.000  0.000     2.468     2.457
 387   1 H      0.067  0.933  0.000  0.000     2.122     2.278
 388   7 N     -0.154  1.232  3.922  0.000    24.329     7.326
 389   6 C      0.018  1.053  2.929  0.000    20.261     6.407
 390   6 C      0.261  1.043  2.696  0.000    22.603     7.786
 391   8 O     -0.498  1.744  4.754  0.000    23.748     6.534
 392   1 H      0.220  0.780  0.000  0.000     1.009     1.573
 393   1 H      0.096  0.904  0.000  0.000     1.822     2.111
 394   6 C      0.117  1.039  2.843  0.000    18.724     6.171
 395   8 O     -0.486  1.731  4.755  0.000    22.587     6.416
 396   6 C     -0.140  1.039  3.101  0.000    23.250     6.874
 397   1 H      0.038  0.962  0.000  0.000     2.475     2.460
 398   1 H      0.347  0.653  0.000  0.000     0.595     1.211
 399   1 H      0.070  0.930  0.000  0.000     2.080     2.255
 400   1 H      0.053  0.947  0.000  0.000     2.283     2.363
 401   1 H      0.046  0.954  0.000  0.000     2.374     2.410
 402   7 N     -0.156  1.244  3.912  0.000    24.368     7.332
 403   6 C      0.018  1.054  2.928  0.000    20.281     6.413
 404   6 C      0.207  1.074  2.719  0.000    23.608     7.958
 405   8 O     -0.354  1.741  4.613  0.000    20.784     6.112
 406   6 C     -0.065  1.059  3.005  0.000    21.726     6.633
 407   6 C     -0.012  1.052  2.960  0.000    20.749     6.479
 408   6 C     -0.124  1.040  3.084  0.000    22.908     6.822
 409   6 C     -0.113  1.043  3.070  0.000    22.714     6.794
 410   1 H      0.227  0.773  0.000  0.000     0.976     1.548
 411   1 H      0.098  0.902  0.000  0.000     1.805     2.101
 412   1 H      0.067  0.933  0.000  0.000     2.116     2.275
 413   1 H      0.054  0.946  0.000  0.000     2.272     2.357
 414   1 H      0.034  0.966  0.000  0.000     2.537     2.491
 415   1 H      0.040  0.960  0.000  0.000     2.451     2.448
 416   1 H      0.049  0.951  0.000  0.000     2.328     2.386
 417   1 H      0.055  0.945  0.000  0.000     2.254     2.348
 418   1 H      0.037  0.963  0.000  0.000     2.492     2.468
[...]
   248  C   3.901    O  249 1.891    C  247 0.981    H  581 0.957
   249  O   2.034    C  248 1.891    C  247 0.057
   250  C   3.989    C  251 1.013    H  258 0.977    H  257 0.966    C  247 0.955
   251  C   3.985    C  250 1.013    H  259 0.970    H  260 0.965    C  252 0.916    O  253 0.053    O  254 0.051
   252  C   3.935    O  253 1.521    O  254 1.473    C  251 0.916
   253  O   1.810    C  252 1.521    O  254 0.216    C  251 0.053
   254  O   1.765    C  252 1.473    O  253 0.216    C  251 0.051
   255  H   0.953    N  246 0.899
   256  H   0.993    C  247 0.953
   257  H   0.996    C  250 0.966
   258  H   0.998    C  250 0.977
   259  H   1.000    C  251 0.970
   260  H   0.999    C  251 0.965
   261  O   1.799    H  262 0.913    H  263 0.843
   262  H   0.921    O  261 0.913
   263  H   0.909    O  261 0.843    O  462 0.062
   264  O   1.851    H  266 0.900    H  265 0.848
   265  H   0.883    O  264 0.848
   266  H   0.909    O  264 0.900
   267  O   1.789    H  269 0.900    H  268 0.865
   268  H   0.904    O  267 0.865
   269  H   0.901    O  267 0.900
   270  O   1.840    H  272 0.905    H  271 0.851
   271  H   0.897    O  270 0.851
   272  H   0.910    O  270 0.905
   273  O   1.826    H  275 0.906    H  274 0.862
   274  H   0.891    O  273 0.862
   275  H   0.910    O  273 0.906
   276  O   1.856    H  277 0.887    H  278 0.863
   277  H   0.893    O  276 0.887
   278  H   0.899    O  276 0.863
   279  O   1.867    H  280 0.871    H  281 0.867    H  120 0.054
   280  H   0.882    O  279 0.871
   281  H   0.893    O  279 0.867
   282  O   1.849    H  284 0.907    H  283 0.882
   283  H   0.902    O  282 0.882
   284  H   0.913    O  282 0.907
   285  O   1.786    H  287 0.892    H  286 0.891
   286  H   0.892    O  285 0.891
   287  H   0.893    O  285 0.892
   288  O   1.924    H  290 0.873    H  289 0.837    H  433 0.071
   289  H   0.892    O  288 0.837
   290  H   0.903    O  288 0.873
   291  O   1.782    H  293 0.897    H  292 0.869
   292  H   0.899    O  291 0.869
   293  H   0.897    O  291 0.897
   294  O   1.794    H  295 0.901    H  296 0.860
   295  H   0.907    O  294 0.901
   296  H   0.899    O  294 0.860
   297  O   1.860    H  298 0.887    H  299 0.819
   298  H   0.890    O  297 0.887
   299  H   0.898    O  297 0.819    O  476 0.071
   300  O   1.824    H  301 0.896    H  302 0.891
   301  H   0.899    O  300 0.896
   302  H   0.893    O  300 0.891
   303  O   1.805    H  305 0.899    H  304 0.875
   304  H   0.909    O  303 0.875
   305  H   0.911    O  303 0.899
   306  O   1.804    H  307 0.921    H  308 0.861
   307  H   0.924    O  306 0.921
   308  H   0.893    O  306 0.861
   309  O   1.854    H  310 0.888    H  311 0.861
   310  H   0.894    O  309 0.888
   311  H   0.898    O  309 0.861
   312  O   1.834    H  314 0.891    H  313 0.814
   313  H   0.901    O  312 0.814    O  534 0.078
   314  H   0.904    O  312 0.891
   315  O   1.820    H  317 0.892    H  316 0.886
   316  H   0.894    O  315 0.886
   317  H   0.918    O  315 0.892
   318  O   1.802    H  319 0.894    H  320 0.885
   319  H   0.898    O  318 0.894
   320  H   0.903    O  318 0.885
   321  O   1.840    H  323 0.904    H  322 0.880
   322  H   0.894    O  321 0.880
   323  H   0.907    O  321 0.904
   324  O   1.913    H  325 0.876    H  326 0.871    H  340 0.114
   325  H   0.879    O  324 0.876
   326  H   0.873    O  324 0.871
   327  O   1.819    H  329 0.902    H  328 0.854
   328  H   0.904    O  327 0.854
   329  H   0.904    O  327 0.902
   330  N   3.622    C  331 0.966    H  339 0.897    H  341 0.881    H  340 0.773
   331  C   3.944    C  334 0.980    N  330 0.966    H  342 0.954    C  332 0.934    O  333 0.057
   332  C   3.950    O  333 1.592    N  347 1.349    C  331 0.934
   333  O   1.987    C  332 1.592    N  347 0.198    C  331 0.057
   334  C   3.980    C  335 1.010    C  331 0.980    H  344 0.968    H  343 0.960
   335  C   3.985    C  334 1.010    H  346 0.974    H  345 0.967    C  336 0.904    O  338 0.055    O  337 0.054
   336  C   3.932    O  338 1.517    O  337 1.479    C  335 0.904
   337  O   1.834    C  336 1.479    O  338 0.215    C  335 0.054
   338  O   1.809    C  336 1.517    O  337 0.215    C  335 0.055
   339  H   0.916    N  330 0.897
   340  H   0.896    N  330 0.773    O  324 0.114
   341  H   0.918    N  330 0.881
   342  H   0.986    C  331 0.954
   343  H   0.991    C  334 0.960
   344  H   0.993    C  334 0.968
   345  H   1.000    C  335 0.967
   346  H   0.999    C  335 0.974
   347  N   3.523    C  332 1.349    C  348 0.991    H  351 0.913    O  333 0.198
   348  C   3.964    N  347 0.991    C  353 0.963    H  352 0.943    C  349 0.930    O  350 0.054
   349  C   3.945    O  350 1.633    N  368 1.302    C  348 0.930
   350  O   1.952    C  349 1.633    N  368 0.202    C  348 0.054
   351  H   0.949    N  347 0.913
   352  H   0.989    C  348 0.943
   353  C   3.985    C  354 1.012    C  348 0.963    H  361 0.962    H  362 0.951
   354  C   3.986    C  356 1.417    C  355 1.389    C  353 1.012    C  359 0.096
   355  C   3.990    C  357 1.467    C  354 1.389    H  363 0.958    C  358 0.103
   356  C   3.985    C  358 1.438    C  354 1.417    H  364 0.963    C  357 0.108
   357  C   3.990    C  355 1.467    C  359 1.357    H  365 0.965    C  356 0.108
   358  C   3.983    C  356 1.438    C  359 1.384    H  366 0.957    C  355 0.103    O  360 0.057
   359  C   3.927    C  358 1.384    C  357 1.357    O  360 1.051    C  354 0.096
   360  O   2.069    C  359 1.051    H  367 0.870    C  358 0.057
   361  H   0.991    C  353 0.962
   362  H   0.996    C  353 0.951
   363  H   0.998    C  355 0.958
   364  H   0.995    C  356 0.963
   365  H   0.998    C  357 0.965
   366  H   0.996    C  358 0.957
   367  H   0.897    O  360 0.870
   368  N   3.468    C  349 1.302    C  369 0.989    H  379 0.878    O  350 0.202
   369  C   3.972    N  368 0.989    C  372 0.954    H  380 0.952    C  370 0.947
   370  C   3.942    O  371 1.581    N  388 1.321    C  369 0.947
   371  O   1.946    C  370 1.581    N  388 0.187
   372  C   3.988    C  373 1.011    H  381 0.966    H  382 0.964    C  369 0.954
   373  C   3.986    C  375 1.427    C  374 1.395    C  372 1.011    C  378 0.108
   374  C   3.990    C  376 1.460    C  373 1.395    H  383 0.967    C  377 0.110
   375  C   3.990    C  373 1.427    C  377 1.427    H  384 0.970    C  376 0.112
   376  C   3.989    C  374 1.460    C  378 1.419    H  385 0.962    C  375 0.112
   377  C   3.991    C  378 1.457    C  375 1.427    H  386 0.969    C  374 0.110
   378  C   3.988    C  377 1.457    C  376 1.419    H  387 0.962    C  373 0.108
   379  H   0.943    N  368 0.878
   380  H   0.993    C  369 0.952
   381  H   0.998    C  372 0.966
   382  H   0.997    C  372 0.964
   383  H   0.998    C  374 0.967
   384  H   0.999    C  375 0.970
   385  H   0.996    C  376 0.962
   386  H   0.998    C  377 0.969
   387  H   0.995    C  378 0.962
   388  N   3.494    C  370 1.321    C  389 0.997    H  392 0.903    O  371 0.187
   389  C   3.965    N  388 0.997    C  394 0.958    H  393 0.938    C  390 0.930
   390  C   3.953    O  391 1.585    N  402 1.354    C  389 0.930
   391  O   1.925    C  390 1.585    N  402 0.200
   392  H   0.951    N  388 0.903
   393  H   0.991    C  389 0.938
   394  C   3.960    C  396 1.001    O  395 0.990    C  389 0.958    H  397 0.955
   395  O   1.928    C  394 0.990    H  398 0.864
   396  C   3.992    C  394 1.001    H  401 0.984    H  400 0.981    H  399 0.980
   397  H   0.998    C  394 0.955
   398  H   0.879    O  395 0.864
   399  H   0.994    C  396 0.980
   400  H   0.997    C  396 0.981
   401  H   0.998    C  396 0.984
   402  N   3.509    C  390 1.354    C  403 0.966    H  410 0.890    O  391 0.200
   403  C   3.963    C  404 0.995    N  402 0.966    H  411 0.949    C  406 0.941    O  405 0.054
   404  C   3.904    O  405 1.887    C  403 0.995    H  582 0.949
   405  O   2.062    C  404 1.887    C  403 0.054
   406  C   3.985    C  407 1.003    H  413 0.971    H  412 0.963    C  403 0.941
   407  C   3.995    C  408 1.012    C  406 1.003    C  409 0.998    H  414 0.966
   408  C   3.994    C  407 1.012    H  415 0.984    H  417 0.981    H  416 0.979
   409  C   3.993    C  407 0.998    H  420 0.987    H  418 0.986    H  419 0.985
   410  H   0.948    N  402 0.890
   411  H   0.990    C  403 0.949
   412  H   0.995    C  406 0.963
   413  H   0.997    C  406 0.971
   414  H   0.999    C  407 0.966
   415  H   0.998    C  408 0.984
   416  H   0.998    C  408 0.979
   417  H   0.997    C  408 0.981
   418  H   0.998    C  409 0.986
   419  H   0.998    C  409 0.985
   420  H   0.999    C  409 0.987
   421  N   2.993    C  422 1.006    H  583 0.953    H  429 0.950
   422  C   3.987    N  421 1.006    C  423 0.991    C  425 0.957    H  430 0.951
   423  C   3.886    O  424 1.859    C  422 0.991    H  584 0.956
   424  O   2.018    C  423 1.859
   425  C   3.990    H  432 0.972    C  422 0.957    C  426 0.956    H  431 0.949    O  427 0.052
   426  C   3.954    O  427 1.611    N  428 1.364    C  425 0.956
   427  O   1.920    C  426 1.611    N  428 0.206    C  425 0.052
   428  N   3.413    C  426 1.364    H  434 0.915    H  433 0.837    O  427 0.206
   429  H   0.968    N  421 0.950
   430  H   0.997    C  422 0.951
   431  H   0.994    C  425 0.949
   432  H   0.996    C  425 0.972
   433  H   0.937    N  428 0.837    O  288 0.071
   434  H   0.957    N  428 0.915
   435  N   2.990    C  436 1.006    H  585 0.958    H  443 0.952
   436  C   3.984    N  435 1.006    C  439 0.980    C  437 0.963    H  444 0.949
   437  C   3.941    O  438 1.627    N  454 1.269    C  436 0.963
   438  O   1.954    C  437 1.627    N  454 0.195
   439  C   3.991    C  440 0.983    C  436 0.980    H  446 0.971    H  445 0.969
   440  C   3.994    C  441 1.013    C  442 1.009    C  439 0.983    H  447 0.967
   441  C   3.993    C  440 1.013    H  450 0.981    H  448 0.980    H  449 0.979
   442  C   3.995    C  440 1.009    H  451 0.986    H  452 0.985    H  453 0.984
   443  H   0.974    N  435 0.952
   444  H   0.998    C  436 0.949
   445  H   0.997    C  439 0.969
   446  H   0.998    C  439 0.971
   447  H   0.998    C  440 0.967
   448  H   0.997    C  441 0.980
   449  H   0.998    C  441 0.979
   450  H   0.997    C  441 0.981
   451  H   0.999    C  442 0.986
   452  H   0.999    C  442 0.985
   453  H   0.999    C  442 0.984
   454  N   3.440    C  437 1.269    C  455 0.972    H  463 0.904    O  438 0.195
   455  C   3.969    C  456 0.990    N  454 0.972    C  458 0.962    H  464 0.945    O  457 0.053
   456  C   3.901    O  457 1.883    C  455 0.990    H  586 0.955
   457  O   2.025    C  456 1.883    C  455 0.053
   458  C   3.986    C  459 1.005    H  465 0.973    H  466 0.971    C  455 0.962
   459  C   3.991    C  458 1.005    H  467 0.961    H  468 0.952    C  460 0.950
   460  C   3.935    O  461 1.529    O  462 1.423    C  459 0.950
   461  O   1.814    C  460 1.529    O  462 0.207
   462  O   1.844    C  460 1.423    O  461 0.207    H  263 0.062
   463  H   0.949    N  454 0.904
   464  H   0.993    C  455 0.945
   465  H   0.997    C  458 0.973
   466  H   0.997    C  458 0.971
   467  H   0.996    C  459 0.961
   468  H   0.997    C  459 0.952
   469  N   2.998    C  470 1.021    H  587 0.958    H  477 0.935
   470  C   3.987    N  469 1.021    C  471 0.976    C  473 0.968    H  478 0.952    O  472 0.056
   471  C   3.896    O  472 1.858    C  470 0.976    H  588 0.954
   472  O   2.003    C  471 1.858    C  470 0.056
   473  C   3.989    C  470 0.968    H  479 0.961    H  480 0.956    C  474 0.919    O  475 0.050
   474  C   3.933    O  475 1.540    O  476 1.416    C  473 0.919
   475  O   1.870    C  474 1.540    O  476 0.196    C  473 0.050
   476  O   1.884    C  474 1.416    O  475 0.196    H  149 0.071    H  299 0.071
   477  H   0.972    N  469 0.935
   478  H   0.998    C  470 0.952
   479  H   0.997    C  473 0.961
   480  H   0.998    C  473 0.956
   481  N   3.005    C  482 1.031    H  485 0.953    H  589 0.951
   482  C   3.986    N  481 1.031    C  483 0.979    H  486 0.954    C  487 0.937    O  484 0.059
   483  C   3.896    O  484 1.890    C  482 0.979    H  590 0.957
   484  O   2.028    C  483 1.890    C  482 0.059
   485  H   0.971    N  481 0.953
   486  H   0.996    C  482 0.954
   487  C   3.991    C  488 1.013    H  495 0.965    H  496 0.950    C  482 0.937
   488  C   3.988    C  490 1.412    C  489 1.394    C  487 1.013    C  493 0.096
   489  C   3.991    C  491 1.467    C  488 1.394    H  497 0.967    C  492 0.105
   490  C   3.987    C  492 1.440    C  488 1.412    H  498 0.946    C  491 0.107
   491  C   3.989    C  489 1.467    C  493 1.362    H  499 0.968    C  490 0.107
   492  C   3.985    C  490 1.440    C  493 1.385    H  500 0.952    C  489 0.105    O  494 0.055
   493  C   3.933    C  492 1.385    C  491 1.362    O  494 1.051    C  488 0.096
   494  O   2.066    C  493 1.051    H  501 0.869    C  492 0.055
   495  H   0.996    C  487 0.965
   496  H   0.996    C  487 0.950
   497  H   0.998    C  489 0.967
   498  H   0.996    C  490 0.946
   499  H   0.998    C  491 0.968
   500  H   0.997    C  492 0.952
   501  H   0.895    O  494 0.869
   502  N   2.984    C  503 1.003    H  591 0.957    H  506 0.952
   503  C   3.981    N  502 1.003    C  504 0.980    C  508 0.962    H  507 0.961    O  505 0.055
   504  C   3.885    O  505 1.884    C  503 0.980    H  592 0.956
   505  O   2.019    C  504 1.884    C  503 0.055
   506  H   0.969    N  502 0.952
   507  H   0.997    C  503 0.961
   508  C   3.987    C  509 1.008    H  516 0.971    H  515 0.966    C  503 0.962
   509  C   3.993    C  508 1.008    C  510 0.993    H  518 0.971    H  517 0.971
   510  C   3.946    C  509 0.993    N  511 0.990    H  520 0.948    H  519 0.946
   511  N   3.476    C  512 1.313    C  510 0.990    H  521 0.915    N  513 0.109    N  514 0.095
   512  C   3.978    N  513 1.346    N  511 1.313    N  514 1.285
   513  N   3.408    C  512 1.346    H  523 0.919    H  522 0.861    N  511 0.109    N  514 0.101
   514  N   3.360    C  512 1.285    H  524 0.921    H  525 0.920    N  513 0.101    N  511 0.095
   515  H   0.993    C  508 0.966
   516  H   0.996    C  508 0.971
   517  H   0.998    C  509 0.971
   518  H   0.996    C  509 0.971
   519  H   0.987    C  510 0.946
   520  H   0.986    C  510 0.948
   521  H   0.945    N  511 0.915
   522  H   0.931    N  513 0.861
   523  H   0.941    N  513 0.919
   524  H   0.940    N  514 0.921
   525  H   0.941    N  514 0.920
   526  N   2.984    C  527 1.008    H  593 0.954    H  535 0.954
   527  C   3.984    N  526 1.008    C  528 0.981    H  536 0.964    C  530 0.952    O  529 0.056
   528  C   3.889    O  529 1.885    C  527 0.981    H  594 0.953
   529  O   2.026    C  528 1.885    C  527 0.056
   530  C   3.992    C  531 1.014    H  538 0.977    H  537 0.968    C  527 0.952
   531  C   3.988    C  530 1.014    H  539 0.968    H  540 0.964    C  532 0.924    O  533 0.053
   532  C   3.934    O  533 1.548    O  534 1.427    C  531 0.924
   533  O   1.833    C  532 1.548    O  534 0.209    C  531 0.053
   534  O   1.818    C  532 1.427    O  533 0.209    H  313 0.078
   535  H   0.972    N  526 0.954
   536  H   0.998    C  527 0.964
   537  H   0.997    C  530 0.968
   538  H   0.998    C  530 0.977
   539  H   0.999    C  531 0.968
   540  H   0.999    C  531 0.964
   541  N   2.985    C  542 0.999    H  595 0.959    H  545 0.950
   542  C   3.980    N  541 0.999    C  543 0.973    C  547 0.972    H  546 0.963    O  544 0.054
   543  C   3.871    O  544 1.859    C  542 0.973    H  596 0.954
   544  O   2.033    C  543 1.859    C  542 0.054
   545  H   0.966    N  541 0.950
   546  H   0.998    C  542 0.963
   547  C   3.985    C  548 1.001    C  542 0.972    H  554 0.967    H  555 0.966
   548  C   3.992    C  549 1.008    C  547 1.001    H  556 0.970    H  557 0.962
   549  C   3.961    C  548 1.008    N  550 0.983    H  558 0.955    H  559 0.954
   550  N   3.443    C  551 1.300    C  549 0.983    H  560 0.908    N  552 0.104    N  553 0.083
   551  C   3.976    N  552 1.356    N  550 1.300    N  553 1.283
   552  N   3.438    C  551 1.356    H  562 0.913    H  561 0.907    N  550 0.104    N  553 0.097
   553  N   3.320    C  551 1.283    H  564 0.907    H  563 0.905    N  552 0.097    N  550 0.083
   554  H   0.993    C  547 0.967
   555  H   0.993    C  547 0.966
   556  H   0.998    C  548 0.970
   557  H   0.995    C  548 0.962
   558  H   0.994    C  549 0.955
   559  H   0.993    C  549 0.954
   560  H   0.940    N  550 0.908
   561  H   0.943    N  552 0.907
   562  H   0.933    N  552 0.913
   563  H   0.932    N  553 0.905
   564  H   0.933    N  553 0.907
   565  N   2.989    C  566 1.023    H  597 0.958    H  574 0.918
   566  C   3.987    N  565 1.023    C  567 0.989    H  575 0.958    C  569 0.937    O  568 0.059
   567  C   3.885    O  568 1.856    C  566 0.989    H  598 0.953
   568  O   2.001    C  567 1.856    C  566 0.059
   569  C   3.990    C  570 1.007    H  577 0.976    H  576 0.974    C  566 0.937
   570  C   3.983    C  569 1.007    H  578 0.972    H  579 0.958    C  571 0.914
   571  C   3.938    O  573 1.535    O  572 1.451    C  570 0.914
   572  O   1.819    C  571 1.451    O  573 0.213
   573  O   1.835    C  571 1.535    O  572 0.213
   574  H   0.962    N  565 0.918
   575  H   0.999    C  566 0.958
   576  H   0.997    C  569 0.974
   577  H   1.000    C  569 0.976
   578  H   1.000    C  570 0.972
   579  H   0.998    C  570 0.958
   580  H   0.966    N    1 0.953
   581  H   0.995    C  248 0.957
   582  H   0.993    C  404 0.949
   583  H   0.964    N  421 0.953
   584  H   0.993    C  423 0.956
   585  H   0.968    N  435 0.958
   586  H   0.995    C  456 0.955
   587  H   0.971    N  469 0.958
   588  H   0.995    C  471 0.954
   589  H   0.964    N  481 0.951
   590  H   0.996    C  483 0.957
   591  H   0.966    N  502 0.957
   592  H   0.995    C  504 0.956
   593  H   0.964    N  526 0.954
   594  H   0.993    C  528 0.953
   595  H   0.968    N  541 0.959
   596  H   0.992    C  543 0.954
   597  H   0.968    N  565 0.958
   598  H   0.994    C  567 0.953
 
molecular dipole:
                 x           y           z       tot (Debye)
 q only:       57.554     -38.332      25.749
   full:       53.816     -37.839      23.537     177.599
molecular quadrupole (traceless):
                xx          xy          yy          xz          yz          zz
 q only:     2374.057    4681.843   -3500.638    2782.557    2611.734    1126.581
  q+dip:     2304.891    4380.376   -3420.854    2595.403    2460.198    1115.963
   full:     2310.240    4384.191   -3426.682    2590.934    2456.741    1116.442
speedup  8.74
cpu  time for grad    1 m 11.3 s
wall time for grad    0 m  8.2 s

SCC energy    :    -958.9378697
rep           :      11.0192736
ES            :       3.9706765
AES           :      -0.3115271
AXC           :       0.2731965
disp          :      -0.7752167
XB            :       0.0000000
fix           :       0.0000000
Gborn         :       0.0000000
Gsasa         :       0.0000000
Ghb           :       0.0000000
Gshift        :       0.0000000
Gsolv         :      -1.1109470     -697.13
Etot ala COSMO:    -958.9378697
grad norm     :       0.7629055
total E       :    -947.8273681
atomizationE  :     162.7608380   102133.97
(atE without considering molecular charge,
 total energy contains solvation terms)
H-L gap (eV)  :          1.0822

------------------------------------------------------------------------
 * finished run on 2019/02/16 at 08:10:38.248     
------------------------------------------------------------------------
 total:
 * wall-time:     0 d,  0 h,  0 min,  9.020 sec
 *  cpu-time:     0 d,  0 h,  1 min, 16.187 sec
 * ratio c/w:     8.446 speedup
 SCF:
 * wall-time:     0 d,  0 h,  0 min,  8.545 sec
 *  cpu-time:     0 d,  0 h,  1 min, 14.221 sec
 * ratio c/w:     8.686 speedup

