      -----------------------------------------------------------      
     |                   =====================                   |     
     |                           x T B                           |     
     |                   =====================                   |     
     |                         S. Grimme                         |     
     |          Mulliken Center for Theoretical Chemistry        |     
     |                    University of Bonn                     |     
     |                 Version 6.0.1 (SAW181210)                 |     
      -----------------------------------------------------------      

   This program is distributed in the hope that it will be useful,
   but WITHOUT ANY WARRANTY; without even the implied warranty of
   MERCHANTABILITY or FITNESS FOR A PARTICULAR PURPOSE.
   
   FOR NON-COMMERCIAL, ACADEMIA USE ONLY.
   
   Cite this work as:
   S. Grimme, C. Bannwarth, P. Shushkov, J. Comput. Theory Chem., 2017,
   13, 1989-2009.
   C. Bannwarth, S. Ehlert and S. Grimme., ChemRxiv, 2018, preprint.
   http://doi.org/10.26434/chemrxiv.7246238.v1
   
   for sTDA-xTB:
   S. Grimme and C. Bannwarth, J. Chem. Phys., 2016, 145, 054103.
   
   in the mass-spec context:
   V. Asgeirsson, C. Bauer and S. Grimme, Chem. Sci., 2017, 8, 4879.
   
   if GBSA is used:
   P. Shushkov, F. März and S. Grimme, unpublished.
   
   for ANC optimizer:
   S. Grimme, unpublished.
   Rational Function algorithm used in ANCopt:
   F. Eckert, P. Pulay, H.-J. Werner, J. Comput. Chem., 1997, 18, 1473.
   
   with help from (in alphabetical order)
   C. Bannwarth, F. Bohle, G. Brandenburg, E. Caldeweyher, M. Checinski,
   S. Dohm, S. Ehlert, S. Ehrlich, F. März, H. Neugebauer, J. Pisarek,
   P. Pracht, P. Shushkov, and S. Spicher.
   
 * started run on 2019/02/22 at 14:14:17.921     
========================================================================
 # omp threads = 12
========================================================================
number of atoms            : 1861
number of electrons        : 5150
charge                     : -3
spin                       : .0
first test random number   : .6107

########################################################################
# WARNING! Please study the warnings concerning your input carefully
#  - Process number higher than OMP_NUM_THREADS, I hope you know what you are doing.
########################################################################

           ------------------------------------------------- 
          |                 G F N 2 - x T B                 |
          | Geometry, Frequencies, Noncovalent interactions |
          |            JCTC 2018 parametrisation            |
           ------------------------------------------------- 
 
      method parameters     
 k(s)        :  1.8500
 k(p)        :  2.2300
 k(d)        :  2.2300
 k(f)        :  2.0000
 kEN (H0ij)  : -2.0000
 D4 a1       :  0.5200
 D4 a2       :  5.0000
 D4 s6       :  1.0000
 D4 s8       :  2.7000
 D4 s9       :  5.0000
 alphaj      :  2.0000

 Solvent             : h2o
 Using internal parameter file: .param_gbsa2_h2o
 Gsolv ref. state (COSMO-RS): gsolv [1 M gas/solution]
 temperature (mdtemp)       :    298.150000000000     
 dielectric constant        :    80.2000000000000     
 rho                        :    1.00000000000000     
 mass                       :    18.0000000000000     
 surface tension            :    15.5689454083859     
 probe radius               :   0.975313790000000     
 vdW radii scaling          :    1.00000000000000     
 Gshift (Eh)                :   1.857443126794793E-003
 c1                         :    1.55243817000000     
 soset                      :   0.130326360000000     
 HB correction              :  T

            Z     q(EN)     CN     RAES       Cart. coordinates
     1  N   5.0   -0.21    3.25    1.97    12.41196     6.21875    31.37384
     2  C   4.0    0.04    4.38    4.34    14.13148     7.96147    30.11089
     3  C   4.0    0.15    3.49    3.11    12.63125    10.30458    29.23533
     4  O   6.0   -0.30    1.25    1.80    10.35580    10.20079    28.80822
     5  C   4.0   -0.03    4.17    3.95    15.67027     6.73584    27.99978
     6  S   6.0   -0.04    2.47    3.10    13.91923     5.59004    25.27945
     7  H   1.0    0.12    1.08    1.44    10.76541     6.07592    30.67598
     8  H   1.0    0.05    1.07    1.44    15.40551     8.65851    31.57834
     9  H   1.0    0.06    1.09    1.44    17.02959     8.06818    27.26922
    10  H   1.0    0.04    1.10    1.44    16.48448     5.00948    28.69691
    11  N   5.0   -0.15    3.49    2.07    14.00502    12.41901    29.12619
    12  C   4.0    0.04    4.34    4.28    12.93197    14.86989    28.62833
    13  C   4.0    0.16    3.39    3.08    13.30757    15.67015    25.82441
    14  O   6.0   -0.32    1.29    1.80    15.15415    15.05745    24.60318
    15  C   4.0   -0.06    4.18    3.96    14.17271    16.83210    30.30683
    16  H   1.0    0.11    1.14    1.45    15.72980    12.23379    29.41958
    17  H   1.0    0.06    1.06    1.44    10.89630    14.71979    29.00437
    18  H   1.0    0.06    1.05    1.44    16.09451    16.73803    29.99429
    19  H   1.0    0.07    1.01    1.43    13.65252    16.58013    32.24963
    20  H   1.0    0.06    1.03    1.43    13.66652    18.65394    29.87204
    21  N   5.0   -0.14    3.50    2.08    11.52474    17.22339    24.95805
    22  C   4.0    0.03    4.44    4.44    11.53085    18.21747    22.38662
    23  C   4.0    0.15    3.41    3.08    12.49571    20.97681    22.39223
    24  O   6.0   -0.30    1.31    1.80    13.16590    22.06378    24.28319
    25  C   4.0   -0.03    4.36    4.32     8.92487    17.89218    21.22285
    26  C   4.0   -0.01    3.56    3.14     8.26123    15.19862    20.91556
    27  C   4.0   -0.04    3.44    3.09     9.36207    13.83247    18.96396
    28  C   4.0   -0.03    3.43    3.09     6.75655    13.89607    22.70847
    29  C   4.0   -0.04    3.32    3.06     8.82257    11.29559    18.60317
    30  C   4.0   -0.03    3.33    3.06     6.27162    11.30930    22.43640
    31  C   4.0   -0.04    3.35    3.06     7.19521    10.04478    20.30612
    32  H   1.0    0.10    1.10    1.44    10.18486    17.69909    26.05636
    33  H   1.0    0.05    1.08    1.44    12.90843    17.19258    21.31407
    34  H   1.0    0.06    1.06    1.44     7.67523    18.91015    22.39973
    35  H   1.0    0.05    1.04    1.43     8.87752    18.76477    19.36940
    36  H   1.0    0.05    1.00    1.43    10.53842    14.89141    17.55712
    37  H   1.0    0.06    1.03    1.43     6.02352    14.97218    24.26904
    38  H   1.0    0.04    1.00    1.43     9.75523    10.30532    16.99753
    39  H   1.0    0.05    1.03    1.43     5.02511    10.36989    23.74644
    40  H   1.0    0.05    1.02    1.43     6.75751     8.06224    20.08004
    41  N   5.0   -0.15    3.48    2.07    12.69240    22.12384    20.09970
    42  C   4.0    0.03    4.46    4.47    13.73490    24.66701    19.91909
    43  C   4.0    0.16    3.49    3.11    12.20729    26.49150    21.53450
    44  O   6.0   -0.32    1.26    1.80     9.89797    26.54634    21.47854
    45  C   4.0   -0.04    4.35    4.29    13.59630    25.48380    17.17369
    46  C   4.0   -0.03    4.23    4.06    14.88038    27.94682    16.68634
    47  C   4.0    0.24    3.14    3.03    14.80771    28.65384    13.90836
    48  O   6.0   -0.28    1.21    1.80    15.82252    30.66085    13.35486
    49  O   6.0   -0.29    1.23    1.80    13.98897    27.15438    12.30186
    50  H   1.0    0.09    1.12    1.45    12.20445    21.05476    18.72641
    51  H   1.0    0.05    1.08    1.44    15.66642    24.57682    20.47273
    52  H   1.0    0.04    1.01    1.43    14.48549    23.95257    16.00826
    53  H   1.0    0.05    1.06    1.44    11.62492    25.56138    16.77350
    54  H   1.0    0.05    1.04    1.43    13.90789    29.44135    17.71706
    55  H   1.0    0.05    1.02    1.43    16.86542    27.99455    17.29180
    56  N   5.0   -0.16    3.42    2.03    13.63199    28.15377    22.90368
    57  C   4.0    0.01    4.30    4.19    12.46375    30.02813    24.44719
    58  C   4.0    0.15    3.32    3.06    11.62093    29.13148    27.06161
    59  O   6.0   -0.31    1.22    1.80    10.76764    30.65025    28.61493
    60  H   1.0    0.11    1.12    1.45    15.45042    28.06417    22.90703
    61  H   1.0    0.04    1.05    1.44    13.75717    31.54076    24.69470
    62  H   1.0    0.05    1.06    1.44    10.80084    30.64893    23.49821
    63  N   5.0   -0.13    3.51    2.08    11.77937    26.65581    27.46476
    64  C   4.0    0.04    4.42    4.41    10.99514    25.47701    29.81989
    65  C   4.0    0.16    3.43    3.09    13.28476    25.18679    31.58229
    66  O   6.0   -0.30    1.27    1.80    15.40948    24.73845    30.79910
    67  C   4.0   -0.03    4.34    4.27     9.78858    22.89520    29.15044
    68  C   4.0   -0.02    4.25    4.09     9.06312    21.36012    31.46865
    69  C   4.0    0.24    3.15    3.03     7.59937    19.02137    30.73947
    70  O   6.0   -0.31    1.21    1.80     6.87809    18.60801    28.59038
    71  O   6.0   -0.28    1.19    1.80     7.07838    17.43486    32.53997
    72  H   1.0    0.11    1.13    1.45    12.49227    25.60919    26.16540
    73  H   1.0    0.06    1.07    1.44     9.51626    26.57400    30.67038
    74  H   1.0    0.07    1.06    1.44     8.08685    23.22380    28.19007
    75  H   1.0    0.07    1.07    1.44    11.06242    21.93380    28.01914
    76  H   1.0    0.07    1.06    1.44    10.67658    20.70883    32.42536
    77  H   1.0    0.08    1.05    1.44     7.90801    22.48455    32.68070
    78  N   5.0   -0.15    3.47    2.06    12.71748    25.32005    34.03043
    79  C   4.0    0.05    4.39    4.36    14.57063    24.84387    35.99423
    80  C   4.0    0.17    3.47    3.10    15.69360    22.23816    35.76521
    81  O   6.0   -0.31    1.27    1.80    14.29067    20.33965    35.44331
    82  C   4.0    0.05    4.14    3.88    13.31883    25.09013    38.71994
    83  O   6.0   -0.22    2.10    1.84    14.86334    24.31051    40.69133
    84  H   1.0    0.11    1.14    1.45    10.99941    25.62966    34.47053
    85  H   1.0    0.07    1.08    1.44    15.98187    26.24781    35.99022
    86  H   1.0    0.05    0.99    1.43    12.69937    27.10220    38.89237
    87  H   1.0    0.07    1.05    1.44    11.75075    23.91123    38.75690
    88  H   1.0    0.14    1.06    1.44    14.04793    24.55617    42.21993
    89  N   5.0   -0.13    3.57    2.13    18.12172    22.06049    36.10533
    90  C   4.0    0.05    4.53    4.58    19.54298    19.73073    36.16322
    91  C   4.0    0.15    3.46    3.10    20.97822    19.50980    38.64963
    92  O   6.0   -0.29    1.28    1.80    21.65335    21.41458    39.84641
    93  C   4.0   -0.02    4.19    3.98    21.17090    19.34377    33.89210
    94  S   6.0    0.00    2.61    3.10    23.12474    22.14798    33.21915
    95  H   1.0    0.12    1.15    1.45    19.12624    23.55098    36.36118
    96  H   1.0    0.06    1.09    1.44    18.14459    18.23441    36.29718
    97  H   1.0    0.05    1.08    1.44    22.44440    17.77039    34.08994
    98  H   1.0    0.05    1.11    1.45    20.18614    18.94440    32.15446
    99  N   5.0   -0.15    3.52    2.09    21.53117    17.18856    39.33783
   100  C   4.0    0.04    4.45    4.46    23.14705    16.61808    41.51089
   101  C   4.0    0.16    3.50    3.11    24.59287    14.25555    40.73584
   102  O   6.0   -0.29    1.31    1.80    23.41149    12.38989    39.88305
   103  C   4.0   -0.03    4.32    4.24    21.62686    16.30753    43.93760
   104  C   4.0    0.16    3.27    3.05    23.15881    15.06917    46.02156
   105  O   6.0   -0.29    1.24    1.80    23.72389    12.84235    45.85110
   106  N   5.0   -0.20    3.22    1.96    23.67042    16.45380    48.00877
   107  H   1.0    0.11    1.13    1.45    20.77732    15.79232    38.47772
   108  H   1.0    0.07    1.08    1.44    24.39663    18.20966    41.67576
   109  H   1.0    0.06    1.04    1.44    20.96242    18.12417    44.51093
   110  H   1.0    0.05    1.05    1.44    20.06858    15.09965    43.52313
   111  H   1.0    0.12    1.08    1.44    23.29761    18.26151    48.00725
   112  H   1.0    0.10    1.05    1.44    24.65123    15.74086    49.38279
   113  N   5.0   -0.15    3.43    2.03    27.06719    14.30038    40.93693
   114  C   4.0    0.04    4.43    4.43    28.55927    12.20909    39.79881
   115  C   4.0    0.09    3.19    3.03    28.21857     9.68241    41.25031
   116  O   6.0   -0.29    1.12    1.80    28.61836     7.71973    40.13578
   117  C   4.0   -0.02    4.30    4.19    31.38179    12.89154    39.63601
   118  C   4.0   -0.06    4.19    3.98    31.67931    15.02985    37.85294
   119  C   4.0   -0.07    4.17    3.94    32.52427    13.45765    42.19081
   120  H   1.0    0.10    1.10    1.44    27.92103    15.75814    41.65443
   121  H   1.0    0.06    1.07    1.44    27.93248    11.93661    37.87757
   122  H   1.0    0.05    1.07    1.44    32.33294    11.26714    38.80571
   123  H   1.0    0.06    1.03    1.43    32.61262    16.54995    38.81767
   124  H   1.0    0.06    1.01    1.43    29.96147    15.87278    37.15271
   125  H   1.0    0.06    1.01    1.43    32.87446    14.63856    36.28512
   126  H   1.0    0.05    1.02    1.43    31.70388    15.08859    43.00411
   127  H   1.0    0.05    1.01    1.43    34.48635    13.91065    41.79997
   128  H   1.0    0.04    1.02    1.43    32.51890    11.87505    43.38095
   129  N   5.0   -0.21    3.24    1.96    18.92794     9.48734    40.17702
   130  C   4.0    0.15    3.56    3.14    19.45160    11.46487    36.12734
   131  O   6.0   -0.31    1.32    1.80    19.44834    13.75138    35.67523
   132  H   1.0    0.13    1.10    1.44    20.37508    10.59758    40.50372
   133  H   1.0    0.04    1.10    1.44    16.75264     8.78810    37.16206
   134  C   4.0    0.03    4.39    4.36    17.62893    10.35624    37.95737
   135  C   4.0   -0.03    4.35    4.29    15.42851    12.32721    38.38322
   136  C   4.0   -0.02    3.53    3.13    13.06605    11.19103    39.31600
   137  C   4.0   -0.04    3.50    3.11    11.17865    10.27973    37.74380
   138  C   4.0   -0.05    3.47    3.10    12.71708    10.89816    41.90533
   139  C   4.0   -0.04    3.40    3.08     8.99847     9.10625    38.53066
   140  C   4.0   -0.05    3.43    3.09    10.51799     9.63908    42.79396
   141  C   4.0    0.06    3.48    3.11     8.75232     8.80309    41.09140
   142  O   6.0   -0.24    2.11    1.84     6.56725     7.50632    41.92012
   143  H   1.0    0.05    1.05    1.44    16.09589    13.60066    39.83804
   144  H   1.0    0.06    1.04    1.43    15.12005    13.41808    36.68104
   145  H   1.0    0.06    1.01    1.43    11.44516    10.50441    35.67089
   146  H   1.0    0.05    1.03    1.43    14.04991    11.48987    43.31949
   147  H   1.0    0.06    1.02    1.43     7.57276     8.41183    37.22495
   148  H   1.0    0.05    1.03    1.43    10.15470     9.34373    44.76439
   149  H   1.0    0.12    1.05    1.44     6.62564     7.34892    43.67946
   150  N   5.0   -0.08    3.69    2.26    21.06515     9.87040    35.00069
   151  C   4.0    0.03    4.55    4.61    22.79108    10.91923    33.02867
   152  C   4.0    0.16    3.48    3.11    21.24849    11.67963    30.75367
   153  O   6.0   -0.31    1.32    1.80    19.06136    10.95377    30.43611
   154  C   4.0   -0.04    4.33    4.25    24.49189     8.59432    32.40727
   155  C   4.0   -0.04    4.27    4.15    22.74582     6.34340    32.95101
   156  C   4.0   -0.01    4.36    4.31    21.29699     7.13078    35.30436
   157  H   1.0    0.06    1.05    1.44    23.74250    12.54930    33.79312
   158  H   1.0    0.05    1.04    1.43    25.05509     8.63380    30.47760
   159  H   1.0    0.05    1.03    1.43    26.09152     8.52924    33.63933
   160  H   1.0    0.05    1.01    1.43    21.38239     6.10791    31.35153
   161  H   1.0    0.05    1.05    1.44    23.76633     4.69540    33.24737
   162  H   1.0    0.04    1.06    1.44    19.57315     6.25128    35.36439
   163  H   1.0    0.06    1.03    1.43    22.28355     6.79165    37.04760
   164  N   5.0   -0.15    3.52    2.09    22.37910    13.24374    29.11808
   165  C   4.0    0.04    4.55    4.60    21.13712    13.81234    26.74452
   166  C   4.0    0.16    3.46    3.10    20.86887    11.38217    25.11368
   167  O   6.0   -0.30    1.27    1.80    22.57339     9.84682    25.00123
   168  C   4.0   -0.04    4.21    4.02    22.54635    15.80534    25.22557
   169  S   6.0   -0.03    2.47    3.10    23.00129    18.74223    26.99113
   170  H   1.0    0.10    1.13    1.45    24.05124    13.83328    29.44156
   171  H   1.0    0.06    1.10    1.44    19.33955    14.56930    27.17573
   172  H   1.0    0.05    1.11    1.45    24.35989    15.15586    24.85188
   173  H   1.0    0.05    1.07    1.44    21.46460    16.02237    23.51409
   174  N   5.0   -0.14    3.53    2.10    18.72040    11.19033    23.84444
   175  C   4.0    0.04    4.57    4.62    18.32919     9.04903    22.20123
   176  C   4.0    0.15    3.49    3.11    20.25797     9.12062    20.00120
   177  O   6.0   -0.29    1.24    1.80    20.73790    11.10306    18.93997
   178  C   4.0   -0.04    4.24    4.08    15.73502     9.07108    21.09831
   179  S   6.0    0.00    2.49    3.10    13.14430     8.81961    23.35633
   180  H   1.0    0.11    1.13    1.45    17.44678    12.47534    24.00840
   181  H   1.0    0.04    1.09    1.44    18.62706     7.32850    23.29934
   182  H   1.0    0.05    1.10    1.44    15.36236    10.84399    20.17607
   183  H   1.0    0.05    1.09    1.44    15.76438     7.61960    19.70009
   184  N   5.0   -0.09    3.64    2.20    21.23916     6.84215    19.28924
   185  C   4.0    0.04    4.55    4.61    23.24280     6.69617    17.35922
   186  C   4.0    0.15    3.40    3.08    22.24083     6.83679    14.65916
   187  O   6.0   -0.29    1.24    1.80    20.01016     6.37808    14.09978
   188  C   4.0   -0.04    4.37    4.32    24.50145     4.17624    17.97561
   189  C   4.0   -0.05    4.27    4.15    22.34478     2.52998    19.05963
   190  C   4.0   -0.02    4.41    4.39    20.87887     4.41086    20.59748
   191  H   1.0    0.07    1.07    1.44    24.51099     8.23939    17.73578
   192  H   1.0    0.04    1.03    1.43    25.39284     3.32700    16.38032
   193  H   1.0    0.04    1.03    1.43    26.00718     4.44411    19.31919
   194  H   1.0    0.05    1.03    1.43    21.13198     1.79734    17.59269
   195  H   1.0    0.03    1.03    1.43    23.01584     1.01098    20.19354
   196  H   1.0    0.04    1.05    1.44    18.94129     4.03827    20.61922
   197  H   1.0    0.04    1.05    1.44    21.70176     4.46815    22.41264
   198  N   5.0   -0.15    3.42    2.03    23.94393     7.38486    12.95543
   199  C   4.0    0.02    4.29    4.18    23.36009     7.39166    10.24886
   200  C   4.0    0.15    3.30    3.05    22.26550     9.85662     9.20711
   201  O   6.0   -0.32    1.24    1.80    21.51386     9.97545     7.05908
   202  H   1.0    0.11    1.13    1.45    25.67510     7.47140    13.34456
   203  H   1.0    0.05    1.04    1.43    25.01281     6.95165     9.20211
   204  H   1.0    0.06    1.06    1.44    21.97776     5.99849     9.89680
   205  N   5.0   -0.15    3.52    2.09    22.16532    11.79211    10.89158
   206  C   4.0    0.04    4.40    4.38    20.79407    14.10182    10.37190
   207  C   4.0    0.14    3.38    3.07    22.41636    16.49469    10.47349
   208  O   6.0   -0.29    1.25    1.80    21.45121    18.57838    10.29108
   209  C   4.0   -0.04    4.41    4.40    18.57612    14.32752    12.25515
   210  C   4.0   -0.02    4.22    4.03    16.57872    12.28265    12.13575
   211  C   4.0   -0.07    4.16    3.92    14.73840    12.62835    14.25469
   212  C   4.0   -0.07    4.14    3.87    15.24934    12.36692     9.55287
   213  H   1.0    0.10    1.13    1.45    22.81574    11.61964    12.56767
   214  H   1.0    0.06    1.07    1.44    20.02132    14.05993     8.48021
   215  H   1.0    0.04    1.05    1.44    19.19074    14.43594    14.15655
   216  H   1.0    0.06    1.05    1.44    17.69246    16.12859    11.96821
   217  H   1.0    0.06    1.06    1.44    17.41631    10.39852    12.33872
   218  H   1.0    0.05    1.02    1.43    13.94995    14.48214    14.02649
   219  H   1.0    0.05    1.01    1.43    15.69524    12.57328    16.03679
   220  H   1.0    0.04    1.01    1.43    13.38879    11.14560    14.35444
   221  H   1.0    0.05    1.00    1.43    14.44667    14.18841     9.17398
   222  H   1.0    0.04    1.01    1.43    13.89780    10.87931     9.43272
   223  H   1.0    0.05    1.01    1.43    16.59396    11.83326     8.13789
   224  N   5.0   -0.15    3.39    2.01    24.91409    16.16374    10.73558
   225  C   4.0    0.01    4.26    4.13    26.62013    18.39066    10.89105
   226  C   4.0    0.15    3.35    3.06    26.64470    19.65896    13.45643
   227  O   6.0   -0.30    1.28    1.80    27.58741    21.77846    13.66479
   228  H   1.0    0.10    1.10    1.44    25.74719    14.50275    10.78068
   229  H   1.0    0.05    1.05    1.44    28.49750    17.86455    10.47465
   230  H   1.0    0.06    1.05    1.44    26.14548    19.89362     9.64272
   231  N   5.0   -0.14    3.50    2.08    25.63316    18.45674    15.45394
   232  C   4.0    0.04    4.46    4.48    25.29777    19.77131    17.78802
   233  C   4.0    0.15    3.42    3.08    27.53160    19.47467    19.58983
   234  O   6.0   -0.31    1.25    1.80    28.58721    17.44369    19.98314
   235  C   4.0   -0.05    4.37    4.33    22.90656    18.71440    19.13087
   236  C   4.0   -0.02    4.20    4.01    20.44600    19.12607    17.62744
   237  C   4.0   -0.07    4.13    3.86    18.27865    17.80301    18.96695
   238  C   4.0   -0.07    4.13    3.87    19.92252    21.90361    17.09118
   239  H   1.0    0.09    1.13    1.45    25.11668    16.75645    15.46444
   240  H   1.0    0.07    1.10    1.44    25.25081    21.76637    17.42153
   241  H   1.0    0.06    1.04    1.43    23.14826    16.77777    19.55485
   242  H   1.0    0.04    1.04    1.43    22.63539    19.68691    20.89677
   243  H   1.0    0.05    1.09    1.44    20.69502    18.31090    15.81723
   244  H   1.0    0.04    1.02    1.43    16.56163    18.01539    17.98820
   245  H   1.0    0.05    1.01    1.43    17.94081    18.48322    20.84480
   246  H   1.0    0.06    1.01    1.43    18.56078    15.80691    19.14353
   247  H   1.0    0.04    1.02    1.43    18.20434    22.13219    16.08949
   248  H   1.0    0.05    1.02    1.43    21.37768    22.66899    15.94874
   249  H   1.0    0.05    1.01    1.43    19.75390    22.95255    18.79552
   250  N   5.0   -0.15    3.53    2.10    28.24265    21.61318    20.71936
   251  C   4.0    0.04    4.46    4.48    30.14227    21.73016    22.70412
   252  C   4.0    0.15    3.43    3.09    28.91246    22.83969    25.03459
   253  O   6.0   -0.31    1.28    1.80    27.25715    24.48264    24.90118
   254  C   4.0    0.06    4.25    4.09    32.39297    23.37044    21.70185
   255  O   6.0   -0.26    2.16    1.85    34.10530    23.41682    23.76250
   256  C   4.0   -0.07    4.13    3.87    31.68842    25.97082    20.81855
   257  H   1.0    0.11    1.12    1.45    27.43452    23.18721    20.24092
   258  H   1.0    0.06    1.08    1.44    30.63385    19.78743    23.02655
   259  H   1.0    0.05    1.05    1.44    33.25829    22.35120    20.16341
   260  H   1.0    0.15    1.08    1.44    35.40950    24.50710    23.35381
   261  H   1.0    0.05    1.02    1.43    30.81035    27.02179    22.29319
   262  H   1.0    0.06    1.02    1.43    30.43312    25.89890    19.28000
   263  H   1.0    0.05    1.04    1.43    33.31940    26.87666    20.26817
   264  N   5.0   -0.14    3.45    2.05    29.61970    21.85087    27.27113
   265  C   4.0    0.04    4.51    4.56    28.44462    22.64983    29.63180
   266  C   4.0    0.15    3.48    3.10    30.07249    24.77455    30.85216
   267  O   6.0   -0.30    1.26    1.80    32.10062    24.27732    31.82564
   268  C   4.0   -0.03    4.22    4.04    28.26700    20.42740    31.40775
   269  S   6.0   -0.01    2.41    3.10    26.70155    21.25179    34.39999
   270  H   1.0    0.10    1.09    1.44    31.09536    20.78592    27.43444
   271  H   1.0    0.06    1.10    1.44    26.65817    23.48509    29.28911
   272  H   1.0    0.05    1.07    1.44    27.18771    18.86803    30.58327
   273  H   1.0    0.07    1.10    1.44    30.09096    19.82556    31.89284
   274  N   5.0   -0.15    3.47    2.06    29.19294    27.14499    30.57104
   275  C   4.0    0.04    4.54    4.59    30.73320    29.26849    31.30778
   276  C   4.0    0.14    3.49    3.11    29.60367    30.60836    33.58531
   277  O   6.0   -0.31    1.28    1.80    27.42392    31.34636    33.51941
   278  C   4.0   -0.02    4.36    4.32    31.03645    31.23606    29.11004
   279  C   4.0   -0.04    4.24    4.08    32.17345    29.95626    26.82222
   280  C   4.0   -0.08    4.19    3.99    32.65367    33.44401    30.01808
   281  C   4.0   -0.08    4.09    3.78    32.51946    31.78352    24.64496
   282  H   1.0    0.11    1.10    1.44    27.51845    27.36555    29.94639
   283  H   1.0    0.06    1.11    1.45    32.51345    28.43928    31.63135
   284  H   1.0    0.05    1.07    1.44    29.18692    31.91231    28.62922
   285  H   1.0    0.06    1.04    1.43    33.92497    29.09693    27.34657
   286  H   1.0    0.06    1.04    1.43    30.91997    28.43771    26.29291
   287  H   1.0    0.05    1.04    1.43    31.70450    34.19078    31.60363
   288  H   1.0    0.04    1.02    1.43    32.84515    34.84881    28.63887
   289  H   1.0    0.05    1.01    1.43    34.50143    33.09332    30.65620
   290  H   1.0    0.04    1.04    1.43    33.84727    33.09746    25.18530
   291  H   1.0    0.04    1.02    1.43    30.86110    32.67318    24.09244
   292  H   1.0    0.04    1.01    1.43    33.28615    30.80450    23.03250
   293  N   5.0   -0.11    3.64    2.20    31.10113    31.00417    35.65125
   294  C   4.0    0.02    4.51    4.55    33.68074    30.17288    35.93777
   295  C   4.0    0.16    3.41    3.08    33.98582    27.39671    36.62018
   296  O   6.0   -0.32    1.30    1.80    35.98768    26.34102    36.28967
   297  C   4.0   -0.05    4.36    4.30    34.64627    31.88865    38.14351
   298  C   4.0   -0.05    4.23    4.07    32.23272    32.41370    39.76801
   299  C   4.0   -0.00    4.37    4.32    30.23924    32.68946    37.75812
   300  H   1.0    0.04    1.06    1.44    34.80731    30.56166    34.27406
   301  H   1.0    0.04    1.05    1.44    35.98149    30.95852    39.22994
   302  H   1.0    0.03    1.04    1.43    35.39822    33.58999    37.39995
   303  H   1.0    0.06    1.03    1.43    31.84662    30.78119    40.92168
   304  H   1.0    0.04    1.04    1.43    32.43584    34.07299    40.85827
   305  H   1.0    0.05    1.03    1.43    28.42019    32.04777    38.39405
   306  H   1.0    0.06    1.04    1.43    30.03146    34.52438    36.98025
   307  N   5.0   -0.14    3.40    2.02    31.98901    26.16839    37.61702
   308  C   4.0    0.03    4.22    4.03    32.15128    23.50208    38.19060
   309  C   4.0    0.09    3.14    3.03    33.85279    22.90484    40.41687
   310  O   6.0   -0.31    1.17    1.80    35.22056    20.96840    40.42308
   311  H   1.0    0.11    1.12    1.45    30.44061    26.90684    38.03345
   312  H   1.0    0.06    1.05    1.44    30.36143    22.66800    38.45055
   313  H   1.0    0.07    1.06    1.44    32.96890    22.66750    36.55683
   314  N   5.0   -0.17    3.45    2.05    32.36898    22.10128    47.38674
   315  C   4.0    0.03    4.50    4.53    31.48750    20.23556    45.53286
   316  C   4.0    0.15    3.45    3.10    29.18331    21.11234    44.01020
   317  O   6.0   -0.31    1.25    1.80    28.38774    19.70751    42.28230
   318  C   4.0   -0.04    4.41    4.40    30.74887    17.99661    47.16997
   319  C   4.0   -0.04    4.34    4.28    29.77654    19.23245    49.53569
   320  C   4.0   -0.01    4.26    4.11    31.54258    21.41863    50.00522
   321  H   1.0    0.06    1.08    1.44    32.82308    19.78837    44.11778
   322  H   1.0    0.05    1.05    1.44    29.31483    16.93529    46.27840
   323  H   1.0    0.04    1.04    1.43    32.36986    16.85164    47.57725
   324  H   1.0    0.06    1.05    1.44    27.89796    19.84094    49.27086
   325  H   1.0    0.04    1.04    1.43    29.68410    17.94015    51.08216
   326  H   1.0    0.04    1.04    1.43    30.59258    22.96778    50.84186
   327  H   1.0    0.03    1.03    1.43    33.27029    20.96163    50.95055
   328  N   5.0   -0.14    3.52    2.09    27.99274    23.21211    44.75538
   329  C   4.0    0.04    4.50    4.54    25.72883    24.06115    43.50530
   330  C   4.0    0.15    3.45    3.09    26.34181    25.80545    41.31929
   331  O   6.0   -0.31    1.26    1.80    28.32983    27.11466    41.26245
   332  C   4.0   -0.02    4.38    4.35    24.09045    25.52881    45.32282
   333  C   4.0    0.25    3.15    3.03    23.12779    24.14543    47.52256
   334  O   6.0   -0.31    1.25    1.80    23.42653    21.87647    47.76976
   335  O   6.0   -0.28    1.19    1.80    22.00824    25.52137    49.16986
   336  H   1.0    0.09    1.13    1.45    28.58720    23.98596    46.18045
   337  H   1.0    0.08    1.09    1.44    24.76848    22.39010    42.91678
   338  H   1.0    0.05    1.03    1.43    25.17881    27.17819    45.96704
   339  H   1.0    0.06    1.06    1.44    22.61461    26.22906    44.12229
   340  N   5.0   -0.14    3.42    2.03    24.64888    25.83769    39.47099
   341  C   4.0    0.02    4.33    4.25    24.94105    27.46344    37.28792
   342  C   4.0    0.15    3.40    3.08    22.47094    27.73121    35.93300
   343  O   6.0   -0.30    1.31    1.80    20.46127    26.95517    36.82493
   344  H   1.0    0.12    1.12    1.45    23.15067    24.77160    39.49029
   345  H   1.0    0.05    1.06    1.44    25.40345    29.35770    37.75208
   346  H   1.0    0.06    1.05    1.44    26.30229    26.64790    36.02761
   347  N   5.0   -0.14    3.54    2.10    22.65403    28.72946    33.61535
   348  C   4.0    0.04    4.49    4.53    20.61539    28.77168    31.78277
   349  C   4.0    0.15    3.45    3.10    21.66582    27.57754    29.35687
   350  O   6.0   -0.30    1.27    1.80    23.79027    28.01670    28.64491
   351  C   4.0    0.06    4.27    4.13    19.63858    31.42044    31.43496
   352  O   6.0   -0.26    2.15    1.85    18.78748    32.42176    33.75690
   353  C   4.0   -0.07    4.13    3.86    17.51160    31.54724    29.50907
   354  H   1.0    0.11    1.12    1.45    24.18975    29.53173    33.09570
   355  H   1.0    0.06    1.09    1.44    19.15786    27.50509    32.30575
   356  H   1.0    0.05    1.06    1.44    21.18914    32.56245    30.74384
   357  H   1.0    0.15    1.09    1.44    17.40416    31.50896    34.36143
   358  H   1.0    0.06    1.01    1.43    15.95477    30.40353    30.10952
   359  H   1.0    0.05    1.01    1.43    18.08518    30.84216    27.72031
   360  H   1.0    0.04    1.02    1.43    16.91564    33.43508    29.39059
   361  N   5.0   -0.15    3.51    2.08    20.08207    26.01963    28.08080
   362  C   4.0    0.04    4.56    4.61    20.90678    24.82186    25.77383
   363  C   4.0    0.15    3.43    3.09    20.91663    26.78548    23.59746
   364  O   6.0   -0.32    1.28    1.80    18.92747    27.90458    23.06175
   365  C   4.0   -0.03    4.24    4.08    19.22862    22.63036    25.08080
   366  S   6.0   -0.01    2.51    3.10    19.39093    20.05734    27.38106
   367  H   1.0    0.11    1.12    1.45    18.41968    25.59276    28.52768
   368  H   1.0    0.06    1.09    1.44    22.77966    24.06477    26.06316
   369  H   1.0    0.07    1.10    1.44    17.29786    23.16379    25.04726
   370  H   1.0    0.04    1.09    1.44    19.64614    22.04536    23.26110
   371  N   5.0   -0.14    3.50    2.08    23.10171    27.14727    22.53217
   372  C   4.0    0.04    4.44    4.45    23.56041    29.04591    20.61126
   373  C   4.0    0.15    3.44    3.09    24.38239    27.73862    18.19157
   374  O   6.0   -0.31    1.28    1.80    25.91678    25.95506    18.26592
   375  C   4.0   -0.03    4.36    4.30    25.63881    30.83907    21.56318
   376  C   4.0   -0.02    3.57    3.15    26.25291    32.89335    19.77802
   377  C   4.0   -0.04    3.47    3.10    28.38894    32.74530    18.20471
   378  C   4.0   -0.04    3.49    3.11    24.75957    35.03972    19.61241
   379  C   4.0   -0.03    3.46    3.10    28.93003    34.70559    16.52966
   380  C   4.0   -0.05    3.46    3.10    25.28458    36.95420    17.94809
   381  C   4.0    0.07    3.47    3.10    27.39888    36.84683    16.41533
   382  O   6.0   -0.24    2.15    1.85    28.01508    38.75009    14.85219
   383  H   1.0    0.12    1.13    1.45    24.53740    26.23771    23.14474
   384  H   1.0    0.06    1.08    1.44    21.85313    30.09130    20.34528
   385  H   1.0    0.05    1.05    1.44    24.91162    31.60394    23.30405
   386  H   1.0    0.05    1.03    1.43    27.40848    29.87232    22.00305
   387  H   1.0    0.05    1.05    1.44    29.66083    31.27406    18.36322
   388  H   1.0    0.06    1.04    1.43    23.14005    35.12474    20.84026
   389  H   1.0    0.06    1.06    1.44    30.58793    34.69212    15.52326
   390  H   1.0    0.05    1.04    1.43    24.09079    38.57709    17.86835
   391  H   1.0    0.11    1.06    1.44    26.93900    40.14094    15.16289
   392  N   5.0   -0.15    3.43    2.04    23.38417    28.58000    16.03846
   393  C   4.0    0.04    4.42    4.41    24.06781    27.46956    13.60181
   394  C   4.0    0.16    3.43    3.09    26.51848    28.56513    12.47928
   395  O   6.0   -0.31    1.25    1.80    26.79039    30.81561    12.21813
   396  C   4.0   -0.03    4.33    4.26    21.88290    27.90201    11.67745
   397  C   4.0   -0.01    3.57    3.15    22.55884    26.90145     9.10018
   398  C   4.0   -0.03    3.50    3.11    23.69145    28.31630     7.23870
   399  C   4.0   -0.02    3.49    3.11    22.15059    24.32309     8.62265
   400  C   4.0   -0.02    3.44    3.09    24.50027    27.24912     4.98322
   401  C   4.0   -0.03    3.46    3.10    22.88181    23.23586     6.38409
   402  C   4.0    0.08    3.49    3.11    24.14327    24.71979     4.54595
   403  O   6.0   -0.22    2.17    1.85    24.95265    23.54200     2.36834
   404  H   1.0    0.11    1.12    1.45    22.17183    29.89907    16.04890
   405  H   1.0    0.06    1.07    1.44    24.35345    25.49447    14.07707
   406  H   1.0    0.06    1.05    1.44    20.17408    27.13508    12.31945
   407  H   1.0    0.07    1.04    1.44    21.47451    29.87686    11.56326
   408  H   1.0    0.06    1.06    1.44    24.09228    30.20223     7.49253
   409  H   1.0    0.07    1.05    1.44    21.35546    23.11701     9.99297
   410  H   1.0    0.07    1.06    1.44    25.36846    28.35944     3.64057
   411  H   1.0    0.07    1.05    1.44    22.49294    21.32090     6.16201
   412  H   1.0    0.13    1.15    1.45    24.80068    21.92231     2.78661
   413  N   5.0   -0.15    3.47    2.06    28.19245    26.80960    11.75666
   414  C   4.0    0.04    4.42    4.41    30.35008    27.46742    10.16478
   415  C   4.0    0.20    3.29    3.05    30.33193    26.03144     7.68382
   416  O   6.0   -0.30    1.20    1.80    31.26171    27.02357     5.78319
   417  C   4.0   -0.04    4.37    4.33    32.82248    27.21034    11.53137
   418  C   4.0   -0.02    4.20    4.00    33.49710    29.43524    13.34569
   419  C   4.0   -0.07    4.15    3.90    35.54644    28.63610    15.07364
   420  C   4.0   -0.07    4.12    3.84    34.05237    31.81629    11.85362
   421  O   6.0   -0.24    2.13    1.84    29.50002    23.76103     7.80243
   422  H   1.0    0.12    1.13    1.45    27.82636    25.09838    12.14967
   423  H   1.0    0.05    1.09    1.44    30.19657    29.44569     9.65659
   424  H   1.0    0.05    1.03    1.43    32.77515    25.33720    12.38274
   425  H   1.0    0.05    1.05    1.44    34.35996    27.08740    10.20894
   426  H   1.0    0.05    1.06    1.44    31.81828    29.71512    14.51980
   427  H   1.0    0.06    1.02    1.43    37.21548    28.18994    14.04241
   428  H   1.0    0.05    1.02    1.43    34.96589    26.99493    16.10344
   429  H   1.0    0.04    1.01    1.43    35.97253    30.11656    16.39718
   430  H   1.0    0.05    1.01    1.43    32.49414    32.42107    10.71777
   431  H   1.0    0.05    1.02    1.43    35.67820    31.46444    10.71908
   432  H   1.0    0.05    1.01    1.43    34.54424    33.30863    13.16045
   433  H   1.0    0.17    1.09    1.44    29.64734    22.88213     6.12185
   434  C   4.0    0.01    3.91    3.48    40.46491    32.02579    34.70824
   435  O   6.0   -0.27    2.03    1.83    42.44339    30.99322    36.20315
   436  H   1.0    0.04    0.99    1.43    39.61321    33.65699    35.62745
   437  H   1.0    0.05    0.99    1.43    39.03081    30.61130    34.38920
   438  H   1.0    0.06    1.01    1.43    41.23378    32.50589    32.96908
   439  H   1.0    0.12    1.02    1.43    41.84376    30.57528    37.85447
   440  C   4.0    0.01    3.93    3.51     6.95213     4.98145    26.62075
   441  O   6.0   -0.25    2.02    1.83     7.48796     5.24413    29.12777
   442  H   1.0    0.05    1.01    1.43     6.03433     6.65697    26.02991
   443  H   1.0    0.05    1.02    1.43     8.65945     4.76286    25.61187
   444  H   1.0    0.04    0.98    1.43     5.65865     3.38310    26.33686
   445  H   1.0    0.11    1.00    1.43     5.88440     5.44589    30.11288
   446  C   4.0    0.00    3.94    3.52     3.21561     1.89322    21.23532
   447  O   6.0   -0.27    2.01    1.83     4.89436     3.46452    19.92765
   448  H   1.0    0.04    1.00    1.43     4.06590     0.07204    21.32787
   449  H   1.0    0.04    1.01    1.43     2.95478     2.67890    23.03252
   450  H   1.0    0.05    1.01    1.43     1.52102     1.86771    20.18540
   451  H   1.0    0.12    1.04    1.43     4.28895     5.12262    19.84491
   452  C   4.0    0.01    3.93    3.50    10.07906     4.31202    11.02991
   453  O   6.0   -0.25    2.00    1.83     9.69105     1.92948    12.09652
   454  H   1.0    0.05    1.00    1.43     9.37251     5.66064    12.37724
   455  H   1.0    0.04    0.99    1.43     9.01620     4.50752     9.30928
   456  H   1.0    0.05    1.00    1.43    12.04773     4.65468    10.70319
   457  H   1.0    0.12    1.04    1.43    10.39525     0.71064    11.00390
   458  C   4.0    0.02    3.90    3.47    33.26895    11.31144    31.53126
   459  O   6.0   -0.26    2.03    1.83    30.68568    10.83996    31.89355
   460  H   1.0    0.07    1.01    1.43    33.67020    12.82152    32.75070
   461  H   1.0    0.06    1.01    1.43    34.29529     9.65059    31.63783
   462  H   1.0    0.06    0.95    1.42    33.72898    12.21933    29.63379
   463  H   1.0    0.11    1.00    1.43    30.19196     9.41437    30.77941
   464  C   4.0    0.01    3.94    3.53    25.49161     4.27144    26.51289
   465  O   6.0   -0.27    2.02    1.83    26.81820     3.30451    28.48342
   466  H   1.0    0.06    1.00    1.43    26.22335     6.03663    25.87230
   467  H   1.0    0.05    1.00    1.43    23.57417     4.54799    27.09619
   468  H   1.0    0.04    1.01    1.43    25.72173     2.79015    25.16031
   469  H   1.0    0.11    1.04    1.43    28.54058     3.05251    28.02503
   470  C   4.0    0.01    3.89    3.44    29.23340    14.73451    27.52765
   471  O   6.0   -0.26    2.01    1.83    27.66257    14.18848    29.71973
   472  H   1.0    0.04    0.98    1.43    28.85047    13.43079    25.98700
   473  H   1.0    0.05    1.00    1.43    28.90082    16.64410    26.95221
   474  H   1.0    0.05    0.99    1.43    31.21881    14.69026    27.96229
   475  H   1.0    0.14    1.07    1.44    28.13080    12.57311    30.33290
   476  C   4.0    0.01    3.91    3.48    14.44710    18.40571    42.16678
   477  O   6.0   -0.23    1.98    1.82    13.44925    20.60425    43.49067
   478  H   1.0    0.07    1.01    1.43    15.57883    19.10736    40.70312
   479  H   1.0    0.05    1.01    1.43    12.90767    17.40777    41.45439
   480  H   1.0    0.04    1.01    1.43    15.50767    17.39696    43.47183
   481  H   1.0    0.12    1.00    1.43    12.55752    20.07429    45.02330
   482  O   6.0   -0.31    2.06    1.83    24.13968    13.07087    15.76302
   483  H   1.0    0.14    1.00    1.43    25.52771    13.09582    14.72692
   484  H   1.0    0.14    1.01    1.43    22.87971    14.04426    15.24026
   485  O   6.0   -0.30    2.00    1.83    28.45450    12.55225    18.49723
   486  H   1.0    0.15    0.99    1.43    29.89491    13.56937    18.44473
   487  H   1.0    0.16    1.01    1.43    27.21288    13.67519    19.00609
   488  O   6.0   -0.31    2.02    1.83    19.77643    32.79486    15.96663
   489  H   1.0    0.15    1.01    1.43    21.07137    33.92052    15.79304
   490  H   1.0    0.16    1.00    1.43    18.33995    33.72761    15.93625
   491  O   6.0   -0.30    2.00    1.83     9.54362    18.36346    36.65091
   492  H   1.0    0.17    1.03    1.43    11.06247    19.14494    36.43634
   493  H   1.0    0.17    1.04    1.43     8.67063    19.25551    37.85287
   494  O   6.0   -0.28    1.96    1.82    18.52153    27.66079    41.62191
   495  H   1.0    0.15    1.00    1.43    19.88805    28.22367    40.67656
   496  H   1.0    0.14    1.01    1.43    17.37334    29.06663    41.56456
   497  O   6.0   -0.31    1.96    1.82    28.39053    12.03533    10.37611
   498  H   1.0    0.12    0.98    1.43    29.72963    13.19852    10.15365
   499  H   1.0    0.12    0.96    1.43    28.16332    11.35820     8.67355
   500  O   6.0   -0.30    1.94    1.82    29.22177     7.83302    14.04299
   501  H   1.0    0.12    0.95    1.42    31.02714     7.33575    14.29666
   502  H   1.0    0.14    0.97    1.43    29.02903     9.40703    14.94825
   503  O   6.0   -0.25    1.93    1.82    14.02508    28.08651     7.51763
   504  H   1.0    0.14    0.95    1.42    15.61262    28.77925     6.82207
   505  H   1.0    0.14    0.97    1.43    12.57730    28.74923     6.66151
   506  O   6.0   -0.34    1.97    1.82    11.68803    19.55522    15.37965
   507  H   1.0    0.13    1.00    1.43    12.89937    20.41564    14.45724
   508  H   1.0    0.13    0.97    1.43    10.01476    20.27900    15.26572
   509  O   6.0   -0.32    1.99    1.82    27.29569     9.70042    22.38470
   510  H   1.0    0.14    1.00    1.43    28.72387    10.63426    22.42782
   511  H   1.0    0.16    1.00    1.43    25.79651    10.53995    22.51683
   512  C   4.0    0.02    3.92    3.50    10.17870    30.12211    -3.50710
   513  O   6.0   -0.26    2.04    1.83    10.02287    27.52505    -3.91276
   514  H   1.0    0.06    0.99    1.43    11.07186    30.54664    -1.73297
   515  H   1.0    0.07    0.99    1.43     8.37265    31.07184    -3.64880
   516  H   1.0    0.06    1.01    1.43    11.37635    30.77986    -4.98405
   517  H   1.0    0.12    1.05    1.44     9.10365    26.77196    -2.57390
   518  C   4.0    0.02    3.92    3.50    38.15231    30.12211    -3.50710
   519  O   6.0   -0.26    2.00    1.83    37.99648    27.52505    -3.91276
   520  H   1.0    0.05    0.99    1.43    39.04548    30.54664    -1.73297
   521  H   1.0    0.06    0.99    1.43    36.34627    31.07184    -3.64880
   522  H   1.0    0.06    1.01    1.43    39.34997    30.77986    -4.98405
   523  H   1.0    0.12    1.05    1.44    37.07727    26.77196    -2.57390
   524  C   4.0    0.01    3.92    3.50    14.87765    34.07234    41.76842
   525  O   6.0   -0.27    2.07    1.83    14.72182    31.47529    41.36276
   526  H   1.0    0.04    0.99    1.43    15.77081    34.49687    43.54255
   527  H   1.0    0.03    0.99    1.43    13.07160    35.02208    41.62672
   528  H   1.0    0.05    1.01    1.43    16.07530    34.73009    40.29147
   529  H   1.0    0.12    1.04    1.43    13.80260    30.72220    42.70162
   530  C   4.0    0.01    3.91    3.48    12.49129    32.02579    34.70824
   531  O   6.0   -0.26    2.04    1.83    14.46978    30.99322    36.20315
   532  H   1.0    0.03    0.99    1.43    11.63959    33.65699    35.62745
   533  H   1.0    0.05    0.99    1.43    11.05720    30.61130    34.38920
   534  H   1.0    0.06    1.01    1.43    13.26016    32.50589    32.96908
   535  H   1.0    0.14    1.05    1.44    13.87014    30.57528    37.85447
   536  C   4.0    0.01    3.93    3.51    20.06714    37.50431    26.62075
   537  O   6.0   -0.25    2.02    1.83    20.60297    37.76699    29.12777
   538  H   1.0    0.04    1.01    1.43    19.14934    39.17983    26.02991
   539  H   1.0    0.05    1.02    1.43    21.77445    37.28572    25.61187
   540  H   1.0    0.04    0.98    1.43    18.77365    35.90596    26.33686
   541  H   1.0    0.11    1.00    1.43    18.99940    37.96875    30.11288
   542  C   4.0    0.01    3.93    3.51    34.92575     4.98145    26.62075
   543  O   6.0   -0.25    2.02    1.83    35.46158     5.24413    29.12777
   544  H   1.0    0.04    1.01    1.43    34.00795     6.65697    26.02991
   545  H   1.0    0.05    1.02    1.43    36.63307     4.76286    25.61187
   546  H   1.0    0.03    0.98    1.43    33.63226     3.38310    26.33686
   547  H   1.0    0.11    1.00    1.43    33.85801     5.44589    30.11288
   548  C   4.0    0.00    3.94    3.52    16.33061    34.41608    21.23532
   549  O   6.0   -0.27    2.02    1.83    18.00936    35.98738    19.92765
   550  H   1.0    0.06    1.00    1.43    17.18090    32.59490    21.32787
   551  H   1.0    0.04    1.01    1.43    16.06978    35.20176    23.03252
   552  H   1.0    0.04    1.01    1.43    14.63602    34.39057    20.18540
   553  H   1.0    0.12    1.04    1.43    17.40395    37.64547    19.84491
   554  C   4.0    0.00    3.94    3.52    44.30423    34.41608    21.23532
   555  O   6.0   -0.26    2.01    1.83    45.98298    35.98738    19.92765
   556  H   1.0    0.06    1.00    1.43    45.15451    32.59490    21.32787
   557  H   1.0    0.04    1.01    1.43    44.04339    35.20176    23.03252
   558  H   1.0    0.04    1.01    1.43    42.60964    34.39057    20.18540
   559  H   1.0    0.12    1.04    1.43    45.37757    37.64547    19.84491
   560  C   4.0   -0.00    3.94    3.52    31.18922     1.89322    21.23532
   561  O   6.0   -0.27    2.01    1.83    32.86798     3.46452    19.92765
   562  H   1.0    0.04    1.00    1.43    32.03951     0.07204    21.32787
   563  H   1.0    0.04    1.01    1.43    30.92839     2.67890    23.03252
   564  H   1.0    0.04    1.01    1.43    29.49464     1.86771    20.18540
   565  H   1.0    0.12    1.04    1.43    32.26256     5.12262    19.84491
   566  C   4.0    0.01    3.93    3.50    23.19406    36.83488    11.02991
   567  O   6.0   -0.24    2.02    1.83    22.80605    34.45234    12.09652
   568  H   1.0    0.05    1.00    1.43    22.48752    38.18350    12.37724
   569  H   1.0    0.04    0.99    1.43    22.13121    37.03037     9.30928
   570  H   1.0    0.05    1.00    1.43    25.16273    37.17754    10.70319
   571  H   1.0    0.14    1.05    1.44    23.51025    33.23350    11.00390
   572  C   4.0    0.01    3.93    3.50    38.05267     4.31202    11.02991
   573  O   6.0   -0.25    2.00    1.83    37.66466     1.92948    12.09652
   574  H   1.0    0.05    1.00    1.43    37.34613     5.66064    12.37724
   575  H   1.0    0.04    0.99    1.43    36.98982     4.50752     9.30928
   576  H   1.0    0.04    1.00    1.43    40.02134     4.65468    10.70319
   577  H   1.0    0.12    1.04    1.43    38.36887     0.71064    11.00390
   578  C   4.0    0.01    3.92    3.50    16.32687    37.65570    34.95108
   579  O   6.0   -0.25    2.01    1.83    15.76864    40.10499    35.61843
   580  H   1.0    0.05    0.99    1.43    17.31685    36.61374    36.40960
   581  H   1.0    0.04    0.99    1.43    14.65427    36.61834    34.41692
   582  H   1.0    0.05    1.00    1.43    17.51018    37.75472    33.28722
   583  H   1.0    0.11    1.02    1.43    14.68462    40.07723    37.10621
   584  C   4.0    0.02    3.90    3.47     5.29533    11.31144    31.53126
   585  O   6.0   -0.26    2.03    1.83     2.71207    10.83996    31.89355
   586  H   1.0    0.07    1.01    1.43     5.69659    12.82152    32.75070
   587  H   1.0    0.06    1.01    1.43     6.32167     9.65059    31.63783
   588  H   1.0    0.06    0.95    1.42     5.75537    12.21933    29.63379
   589  H   1.0    0.11    1.00    1.43     2.21835     9.41437    30.77941
   590  C   4.0    0.02    3.91    3.47    18.41033    43.83429    31.53126
   591  O   6.0   -0.25    2.05    1.83    15.82707    43.36282    31.89355
   592  H   1.0    0.05    1.01    1.43    18.81159    45.34438    32.75070
   593  H   1.0    0.06    1.01    1.43    19.43667    42.17345    31.63783
   594  H   1.0    0.05    0.95    1.42    18.87037    44.74219    29.63379
   595  H   1.0    0.11    1.00    1.43    15.33335    41.93723    30.77941
   596  C   4.0    0.01    3.95    3.53    38.60661    36.79430    26.51289
   597  O   6.0   -0.25    2.03    1.83    39.93320    35.82737    28.48342
   598  H   1.0    0.06    1.00    1.43    39.33835    38.55949    25.87230
   599  H   1.0    0.05    1.00    1.43    36.68917    37.07085    27.09619
   600  H   1.0    0.04    1.01    1.43    38.83674    35.31301    25.16031
   601  H   1.0    0.12    1.04    1.43    41.65558    35.57536    28.02503
   602  C   4.0    0.01    3.95    3.53    10.63300    36.79430    26.51289
   603  O   6.0   -0.26    2.03    1.83    11.95959    35.82737    28.48342
   604  H   1.0    0.05    1.00    1.43    11.36474    38.55949    25.87230
   605  H   1.0    0.05    1.00    1.43     8.71556    37.07085    27.09619
   606  H   1.0    0.04    1.01    1.43    10.86312    35.31301    25.16031
   607  H   1.0    0.11    1.04    1.43    13.68197    35.57536    28.02503
   608  C   4.0    0.01    3.89    3.44     1.25978    14.73451    27.52765
   609  O   6.0   -0.26    2.01    1.83    -0.31104    14.18848    29.71973
   610  H   1.0    0.05    0.98    1.43     0.87686    13.43079    25.98700
   611  H   1.0    0.05    1.00    1.43     0.92721    16.64410    26.95221
   612  H   1.0    0.05    0.99    1.43     3.24520    14.69026    27.96229
   613  H   1.0    0.14    1.07    1.44     0.15718    12.57311    30.33290
   614  C   4.0    0.00    3.89    3.44    14.37478    47.25737    27.52765
   615  O   6.0   -0.26    2.01    1.83    12.80396    46.71133    29.71973
   616  H   1.0    0.04    0.98    1.43    13.99186    45.95365    25.98700
   617  H   1.0    0.05    1.00    1.43    14.04221    49.16696    26.95221
   618  H   1.0    0.04    0.99    1.43    16.36020    47.21312    27.96229
   619  H   1.0    0.14    1.07    1.44    13.27218    45.09597    30.33290
   620  C   4.0    0.01    3.91    3.48    37.72177    14.45548    -3.10874
   621  O   6.0   -0.24    1.98    1.82    36.72392    16.65401    -1.78485
   622  H   1.0    0.06    1.01    1.43    38.85349    15.15712    -4.57240
   623  H   1.0    0.05    1.01    1.43    36.18234    13.45754    -3.82113
   624  H   1.0    0.04    1.01    1.43    38.78233    13.44673    -1.80369
   625  H   1.0    0.11    1.00    1.43    35.83218    16.12405    -0.25222
   626  C   4.0    0.02    3.07    3.02    28.63351    53.82956    10.27618
   627  O   6.0   -0.28    1.00    1.80    29.75506    52.05874     8.35227
   628  H   1.0    0.04    1.98    2.45    29.04501    55.61645    10.34523
   629  H   1.0    0.03    1.61    1.71    29.89666    55.88772    11.10990
   630  H   1.0    0.04    0.50    1.40    28.37002    52.38762    12.56433
   631  H   1.0    0.06    0.13    1.40    26.72540    52.43349     7.37482
   632  C   4.0    0.04    3.07    3.02    15.51851    21.30670    10.27618
   633  O   6.0   -0.24    1.02    1.80    16.64006    19.53588     8.35227
   634  H   1.0    0.06    1.98    2.45    15.93001    23.09359    10.34523
   635  H   1.0    0.04    1.61    1.71    16.78166    23.36486    11.10990
   636  H   1.0    0.04    0.50    1.40    15.25502    19.86476    12.56433
   637  H   1.0    0.09    0.13    1.40    13.61040    19.91063     7.37482
   638  C   4.0    0.03    3.07    3.02    43.49212    21.30670    10.27618
   639  O   6.0   -0.28    1.00    1.80    44.61367    19.53588     8.35227
   640  H   1.0    0.05    1.98    2.45    43.90363    23.09359    10.34523
   641  H   1.0    0.04    1.61    1.71    44.75528    23.36486    11.10990
   642  H   1.0    0.04    0.50    1.40    43.22864    19.86476    12.56433
   643  H   1.0    0.08    0.13    1.40    41.58401    19.91063     7.37482
   644  O   6.0   -0.31    2.06    1.83    37.25468    45.59373    15.76302
   645  H   1.0    0.14    1.00    1.43    38.64271    45.61868    14.72692
   646  H   1.0    0.14    1.01    1.43    35.99472    46.56711    15.24026
   647  O   6.0   -0.32    2.06    1.83     9.28107    45.59373    15.76302
   648  H   1.0    0.14    1.00    1.43    10.66910    45.61868    14.72692
   649  H   1.0    0.14    1.01    1.43     8.02110    46.56711    15.24026
   650  O   6.0   -0.31    1.99    1.82     0.48089    12.55225    18.49723
   651  H   1.0    0.15    0.99    1.43     1.92130    13.56937    18.44473
   652  H   1.0    0.15    1.00    1.43    -0.76074    13.67519    19.00609
   653  O   6.0   -0.30    2.00    1.83    41.56950    45.07511    18.49723
   654  H   1.0    0.14    0.99    1.43    43.00991    46.09223    18.44473
   655  H   1.0    0.16    1.01    1.43    40.32788    46.19804    19.00609
   656  O   6.0   -0.30    2.00    1.83    13.59589    45.07511    18.49723
   657  H   1.0    0.14    0.99    1.43    15.03630    46.09223    18.44473
   658  H   1.0    0.16    1.01    1.43    12.35427    46.19804    19.00609
   659  O   6.0   -0.32    2.01    1.83    47.75004    32.79486    15.96663
   660  H   1.0    0.14    1.00    1.43    49.04498    33.92052    15.79304
   661  H   1.0    0.16    1.00    1.43    46.31356    33.72761    15.93625
   662  O   6.0   -0.30    2.00    1.83    37.51723    18.36346    36.65091
   663  H   1.0    0.17    1.03    1.43    39.03609    19.14494    36.43634
   664  H   1.0    0.17    1.04    1.43    36.64424    19.25551    37.85287
   665  O   6.0   -0.28    1.95    1.82    13.82258    23.71056    -3.65361
   666  H   1.0    0.15    1.00    1.43    15.18910    24.27344    -4.59896
   667  H   1.0    0.15    1.01    1.43    12.67439    25.11640    -3.71096
   668  O   6.0   -0.31    1.96    1.82    41.50553    44.55818    10.37611
   669  H   1.0    0.12    0.98    1.43    42.84463    45.72138    10.15365
   670  H   1.0    0.12    0.96    1.43    41.27832    43.88106     8.67355
   671  O   6.0   -0.30    1.92    1.82    13.53192    44.55818    10.37611
   672  H   1.0    0.12    0.98    1.43    14.87102    45.72138    10.15365
   673  H   1.0    0.12    0.96    1.43    13.30471    43.88106     8.67355
   674  O   6.0   -0.30    1.94    1.82    42.33677    40.35588    14.04299
   675  H   1.0    0.12    0.95    1.42    44.14215    39.85861    14.29666
   676  H   1.0    0.14    0.97    1.43    42.14403    41.92988    14.94825
   677  O   6.0   -0.29    1.89    1.82     1.24815     7.83302    14.04299
   678  H   1.0    0.12    0.95    1.42     3.05353     7.33575    14.29666
   679  H   1.0    0.14    0.97    1.43     1.05541     9.40703    14.94825
   680  O   6.0   -0.30    1.94    1.82    14.36315    40.35588    14.04299
   681  H   1.0    0.12    0.95    1.42    16.16853    39.85861    14.29666
   682  H   1.0    0.14    0.97    1.43    14.17042    41.92988    14.94825
   683  O   6.0   -0.26    1.93    1.82    41.99870    28.08651     7.51763
   684  H   1.0    0.13    0.95    1.42    43.58623    28.77925     6.82207
   685  H   1.0    0.14    0.97    1.43    40.55092    28.74923     6.66151
   686  O   6.0   -0.33    1.94    1.82    24.80303    52.07808    15.37965
   687  H   1.0    0.12    1.00    1.43    26.01437    52.93849    14.45724
   688  H   1.0    0.12    0.97    1.43    23.12976    52.80186    15.26572
   689  O   6.0   -0.34    1.97    1.82    39.66164    19.55522    15.37965
   690  H   1.0    0.13    1.00    1.43    40.87299    20.41564    14.45724
   691  H   1.0    0.13    0.97    1.43    37.98837    20.27900    15.26572
   692  O   6.0   -0.32    1.99    1.82    40.41069    42.22328    22.38470
   693  H   1.0    0.15    1.00    1.43    41.83887    43.15712    22.42782
   694  H   1.0    0.17    1.00    1.43    38.91151    43.06281    22.51683
   695  O   6.0   -0.31    1.99    1.82    -0.67792     9.70042    22.38470
   696  H   1.0    0.14    1.00    1.43     0.75025    10.63426    22.42782
   697  H   1.0    0.16    1.00    1.43    -2.17710    10.53995    22.51683
   698  O   6.0   -0.32    1.99    1.82    12.43708    42.22328    22.38470
   699  H   1.0    0.14    1.00    1.43    13.86526    43.15712    22.42782
   700  H   1.0    0.16    1.00    1.43    10.93790    43.06281    22.51683
   701  N   5.0   -0.12    4.14    3.25    19.88784    32.09354    -7.79138
   702  C   4.0   -0.03    4.15    3.91    19.42089    32.30020   -10.44057
   703  C   4.0    0.07    3.14    3.03    21.46409    33.87064   -11.69880
   704  O   6.0   -0.30    1.17    1.80    23.49271    34.18532   -10.63102
   705  H   1.0    0.09    1.06    1.44    21.23203    33.25596    -7.17561
   706  H   1.0    0.06    1.06    1.44    18.33696    32.45422    -6.83863
   707  H   1.0    0.06    1.04    1.43    20.35053    30.27916    -7.35392
   708  H   1.0    0.04    1.05    1.44    19.18820    30.48987   -11.18491
   709  H   1.0    0.04    1.05    1.44    17.67530    33.25665   -10.69998
   710  N   5.0   -0.12    4.14    3.25    24.58678    36.04377    37.48414
   711  C   4.0   -0.01    4.27    4.15    24.11984    36.25044    34.83495
   712  C   4.0    0.15    3.38    3.07    26.16304    37.82088    33.57672
   713  O   6.0   -0.32    1.28    1.80    28.19166    38.13555    34.64450
   714  H   1.0    0.07    1.06    1.44    25.93098    37.20619    38.09991
   715  H   1.0    0.06    1.06    1.44    23.03591    36.40445    38.43689
   716  H   1.0    0.06    1.04    1.43    25.04948    34.22939    37.92160
   717  H   1.0    0.06    1.05    1.44    23.88715    34.44011    34.09061
   718  H   1.0    0.04    1.05    1.44    22.37425    37.20688    34.57554
   719  N   5.0   -0.15    3.50    2.08    25.52696    38.74161    31.37384
   720  C   4.0    0.04    4.51    4.55    27.24649    40.48433    30.11089
   721  C   4.0    0.15    3.49    3.11    25.74625    42.82743    29.23533
   722  O   6.0   -0.30    1.25    1.80    23.47080    42.72365    28.80822
   723  C   4.0   -0.03    4.17    3.94    28.78527    39.25870    27.99978
   724  S   6.0   -0.03    2.47    3.10    27.03424    38.11290    25.27945
   725  H   1.0    0.11    1.13    1.45    23.88041    38.59878    30.67598
   726  H   1.0    0.07    1.08    1.44    28.52052    41.18137    31.57834
   727  H   1.0    0.06    1.09    1.44    30.14459    40.59104    27.26922
   728  H   1.0    0.05    1.10    1.44    29.59948    37.53233    28.69691
   729  N   5.0   -0.15    3.49    2.07    27.12002    44.94187    29.12619
   730  C   4.0    0.04    4.34    4.28    26.04697    47.39275    28.62833
   731  C   4.0    0.16    3.39    3.08    26.42257    48.19300    25.82441
   732  O   6.0   -0.32    1.29    1.80    28.26915    47.58030    24.60318
   733  C   4.0   -0.07    4.17    3.94    27.28771    49.35496    30.30683
   734  H   1.0    0.11    1.14    1.45    28.84480    44.75664    29.41958
   735  H   1.0    0.05    1.06    1.44    24.01130    47.24265    29.00437
   736  H   1.0    0.06    1.04    1.43    29.20951    49.26089    29.99429
   737  H   1.0    0.05    1.01    1.43    26.76753    49.10299    32.24963
   738  H   1.0    0.05    1.03    1.43    26.78152    51.17680    29.87204
   739  N   5.0   -0.14    3.49    2.07    24.63974    49.74625    24.95805
   740  C   4.0    0.04    4.35    4.29    24.64585    50.74032    22.38662
   741  C   4.0    0.08    3.18    3.03    25.61071    53.49967    22.39223
   742  O   6.0   -0.29    1.13    1.80    26.28090    54.58664    24.28319
   743  C   4.0   -0.04    4.35    4.30    22.03987    50.41504    21.22285
   744  C   4.0   -0.01    3.56    3.14    21.37623    47.72148    20.91556
   745  C   4.0   -0.04    3.44    3.09    22.47708    46.35533    18.96396
   746  C   4.0   -0.03    3.43    3.09    19.87155    46.41893    22.70847
   747  C   4.0   -0.04    3.32    3.06    21.93757    43.81845    18.60317
   748  C   4.0   -0.03    3.33    3.06    19.38662    43.83215    22.43640
   749  C   4.0   -0.04    3.35    3.06    20.31021    42.56764    20.30612
   750  H   1.0    0.08    1.10    1.44    23.29987    50.22194    26.05636
   751  H   1.0    0.05    1.08    1.44    26.02344    49.71543    21.31407
   752  H   1.0    0.05    1.06    1.44    20.79023    51.43301    22.39973
   753  H   1.0    0.04    1.04    1.43    21.99252    51.28762    19.36940
   754  H   1.0    0.05    1.00    1.43    23.65342    47.41427    17.55712
   755  H   1.0    0.05    1.03    1.43    19.13852    47.49504    24.26904
   756  H   1.0    0.04    1.00    1.43    22.87023    42.82818    16.99753
   757  H   1.0    0.05    1.03    1.43    18.14012    42.89275    23.74644
   758  H   1.0    0.05    1.02    1.43    19.87251    40.58510    20.08004
   759  N   5.0   -0.12    4.13    3.24    -3.38683    36.04377    37.48414
   760  C   4.0   -0.01    4.27    4.14    -3.85377    36.25044    34.83495
   761  C   4.0    0.15    3.38    3.07    -1.81057    37.82088    33.57672
   762  O   6.0   -0.31    1.27    1.80     0.21805    38.13555    34.64450
   763  H   1.0    0.07    1.06    1.44    -2.04263    37.20619    38.09991
   764  H   1.0    0.05    1.06    1.44    -4.93770    36.40445    38.43689
   765  H   1.0    0.06    1.04    1.43    -2.92413    34.22939    37.92160
   766  H   1.0    0.06    1.05    1.44    -4.08647    34.44011    34.09061
   767  H   1.0    0.04    1.05    1.44    -5.59936    37.20688    34.57554
   768  N   5.0   -0.15    3.50    2.07    -2.44665    38.74161    31.37384
   769  C   4.0    0.05    4.40    4.38    -0.72713    40.48433    30.11089
   770  C   4.0    0.08    3.27    3.05    -2.22736    42.82743    29.23533
   771  O   6.0   -0.29    1.15    1.80    -4.50282    42.72365    28.80822
   772  C   4.0   -0.03    4.17    3.93     0.81166    39.25870    27.99978
   773  S   6.0   -0.03    2.45    3.10    -0.93938    38.11290    25.27945
   774  H   1.0    0.10    1.10    1.44    -4.09320    38.59878    30.67598
   775  H   1.0    0.07    1.08    1.44     0.54690    41.18137    31.57834
   776  H   1.0    0.06    1.09    1.44     2.17098    40.59104    27.26922
   777  H   1.0    0.05    1.10    1.44     1.62586    37.53233    28.69691
   778  N   5.0   -0.21    3.25    1.97    40.38558     6.21875    31.37384
   779  C   4.0    0.03    4.37    4.33    42.10510     7.96147    30.11089
   780  C   4.0    0.15    3.49    3.11    40.60486    10.30458    29.23533
   781  O   6.0   -0.30    1.25    1.80    38.32941    10.20079    28.80822
   782  C   4.0   -0.04    4.17    3.94    43.64388     6.73584    27.99978
   783  S   6.0   -0.04    2.47    3.10    41.89285     5.59004    25.27945
   784  H   1.0    0.12    1.08    1.44    38.73903     6.07592    30.67598
   785  H   1.0    0.04    1.06    1.44    43.37913     8.65851    31.57834
   786  H   1.0    0.04    1.09    1.44    45.00320     8.06818    27.26922
   787  H   1.0    0.04    1.10    1.44    44.45809     5.00948    28.69691
   788  N   5.0   -0.15    3.47    2.06    41.97863    12.41901    29.12619
   789  C   4.0    0.04    4.34    4.28    40.90558    14.86989    28.62833
   790  C   4.0    0.15    3.40    3.08    41.28118    15.67015    25.82441
   791  O   6.0   -0.32    1.29    1.80    43.12776    15.05745    24.60318
   792  C   4.0   -0.06    4.18    3.97    42.14633    16.83210    30.30683
   793  H   1.0    0.08    1.11    1.45    43.70341    12.23379    29.41958
   794  H   1.0    0.07    1.06    1.44    38.86991    14.71979    29.00437
   795  H   1.0    0.05    1.05    1.44    44.06812    16.73803    29.99429
   796  H   1.0    0.06    1.01    1.43    41.62614    16.58013    32.24963
   797  H   1.0    0.06    1.03    1.43    41.64013    18.65394    29.87204
   798  N   5.0   -0.14    3.50    2.08    39.49835    17.22339    24.95805
   799  C   4.0    0.03    4.44    4.44    39.50446    18.21747    22.38662
   800  C   4.0    0.15    3.41    3.08    40.46932    20.97681    22.39223
   801  O   6.0   -0.31    1.31    1.80    41.13952    22.06378    24.28319
   802  C   4.0   -0.03    4.36    4.32    36.89848    17.89218    21.22285
   803  C   4.0   -0.01    3.56    3.14    36.23484    15.19862    20.91556
   804  C   4.0   -0.04    3.44    3.09    37.33569    13.83247    18.96396
   805  C   4.0   -0.03    3.43    3.09    34.73016    13.89607    22.70847
   806  C   4.0   -0.04    3.32    3.06    36.79619    11.29559    18.60317
   807  C   4.0   -0.03    3.33    3.06    34.24523    11.30930    22.43640
   808  C   4.0   -0.04    3.35    3.06    35.16882    10.04478    20.30612
   809  H   1.0    0.10    1.10    1.44    38.15848    17.69909    26.05636
   810  H   1.0    0.05    1.08    1.44    40.88205    17.19258    21.31407
   811  H   1.0    0.06    1.06    1.44    35.64884    18.91015    22.39973
   812  H   1.0    0.05    1.04    1.43    36.85113    18.76477    19.36940
   813  H   1.0    0.05    1.00    1.43    38.51203    14.89141    17.55712
   814  H   1.0    0.06    1.03    1.43    33.99714    14.97218    24.26904
   815  H   1.0    0.04    1.00    1.43    37.72884    10.30532    16.99753
   816  H   1.0    0.05    1.03    1.43    32.99873    10.36989    23.74644
   817  H   1.0    0.05    1.02    1.43    34.73113     8.06224    20.08004
   818  N   5.0   -0.15    3.48    2.07    40.66602    22.12384    20.09970
   819  C   4.0    0.03    4.46    4.47    41.70852    24.66701    19.91909
   820  C   4.0    0.16    3.49    3.11    40.18091    26.49150    21.53450
   821  O   6.0   -0.32    1.26    1.80    37.87158    26.54634    21.47854
   822  C   4.0   -0.04    4.35    4.29    41.56992    25.48380    17.17369
   823  C   4.0   -0.03    4.23    4.06    42.85399    27.94682    16.68634
   824  C   4.0    0.24    3.14    3.03    42.78132    28.65384    13.90836
   825  O   6.0   -0.28    1.21    1.80    43.79613    30.66085    13.35486
   826  O   6.0   -0.29    1.23    1.80    41.96259    27.15438    12.30186
   827  H   1.0    0.09    1.12    1.45    40.17806    21.05476    18.72641
   828  H   1.0    0.05    1.08    1.44    43.64003    24.57682    20.47273
   829  H   1.0    0.04    1.01    1.43    42.45911    23.95257    16.00826
   830  H   1.0    0.05    1.06    1.44    39.59854    25.56138    16.77350
   831  H   1.0    0.05    1.04    1.43    41.88150    29.44135    17.71706
   832  H   1.0    0.05    1.02    1.43    44.83903    27.99455    17.29180
   833  N   5.0   -0.16    3.42    2.03    41.60561    28.15377    22.90368
   834  C   4.0    0.01    4.30    4.19    40.43736    30.02813    24.44719
   835  C   4.0    0.15    3.32    3.06    39.59454    29.13148    27.06161
   836  O   6.0   -0.31    1.22    1.80    38.74125    30.65025    28.61493
   837  H   1.0    0.11    1.12    1.45    43.42403    28.06417    22.90703
   838  H   1.0    0.04    1.05    1.44    41.73079    31.54076    24.69470
   839  H   1.0    0.05    1.06    1.44    38.77446    30.64893    23.49821
   840  N   5.0   -0.13    3.51    2.08    39.75298    26.65581    27.46476
   841  C   4.0    0.04    4.42    4.41    38.96875    25.47701    29.81989
   842  C   4.0    0.16    3.43    3.09    41.25837    25.18679    31.58229
   843  O   6.0   -0.30    1.27    1.80    43.38310    24.73845    30.79910
   844  C   4.0   -0.03    4.34    4.27    37.76219    22.89520    29.15044
   845  C   4.0   -0.02    4.25    4.09    37.03674    21.36012    31.46865
   846  C   4.0    0.24    3.15    3.03    35.57299    19.02137    30.73947
   847  O   6.0   -0.31    1.21    1.80    34.85171    18.60801    28.59038
   848  O   6.0   -0.28    1.19    1.80    35.05200    17.43486    32.53997
   849  H   1.0    0.11    1.13    1.45    40.46589    25.60919    26.16540
   850  H   1.0    0.06    1.07    1.44    37.48987    26.57400    30.67038
   851  H   1.0    0.07    1.06    1.44    36.06046    23.22380    28.19007
   852  H   1.0    0.07    1.07    1.44    39.03604    21.93380    28.01914
   853  H   1.0    0.07    1.06    1.44    38.65020    20.70883    32.42536
   854  H   1.0    0.08    1.05    1.44    35.88163    22.48455    32.68070
   855  N   5.0   -0.15    3.47    2.06    40.69110    25.32005    34.03043
   856  C   4.0    0.05    4.39    4.36    42.54424    24.84387    35.99423
   857  C   4.0    0.16    3.47    3.10    43.66721    22.23816    35.76521
   858  O   6.0   -0.31    1.27    1.80    42.26428    20.33965    35.44331
   859  C   4.0    0.04    4.14    3.88    41.29244    25.09013    38.71994
   860  O   6.0   -0.25    2.06    1.83    42.83695    24.31051    40.69133
   861  H   1.0    0.11    1.14    1.45    38.97303    25.62966    34.47053
   862  H   1.0    0.05    1.08    1.44    43.95549    26.24781    35.99022
   863  H   1.0    0.04    0.99    1.43    40.67298    27.10220    38.89237
   864  H   1.0    0.07    1.05    1.44    39.72436    23.91123    38.75690
   865  H   1.0    0.13    1.05    1.44    42.02154    24.55617    42.21993
   866  N   5.0   -0.13    3.56    2.12    46.09534    22.06049    36.10533
   867  C   4.0    0.04    4.41    4.41    47.51660    19.73073    36.16322
   868  C   4.0    0.07    3.24    3.04    48.95183    19.50980    38.64963
   869  O   6.0   -0.28    1.13    1.80    49.62697    21.41458    39.84641
   870  C   4.0   -0.04    4.10    3.81    49.14451    19.34377    33.89210
   871  S   6.0   -0.03    2.43    3.10    51.09836    22.14798    33.21915
   872  H   1.0    0.10    1.12    1.45    47.09986    23.55098    36.36118
   873  H   1.0    0.05    1.08    1.44    46.11820    18.23441    36.29718
   874  H   1.0    0.04    1.08    1.44    50.41801    17.77039    34.08994
   875  H   1.0    0.05    1.11    1.44    48.15975    18.94440    32.15446
   876  H   1.0    0.05    0.99    1.43    52.95684    21.95323    31.93446
   877  N   5.0   -0.20    3.32    1.99    13.42277    18.11026    -9.17019
   878  C   4.0    0.03    4.43    4.44    14.84403    15.78050    -9.11230
   879  C   4.0    0.15    3.45    3.10    16.27927    15.55957    -6.62589
   880  O   6.0   -0.29    1.28    1.80    16.95440    17.46435    -5.42911
   881  C   4.0   -0.04    4.11    3.82    16.47195    15.39354   -11.38342
   882  S   6.0   -0.05    2.43    3.10    18.42579    18.19775   -12.05637
   883  H   1.0    0.13    1.10    1.44    14.42729    19.60075    -8.91434
   884  H   1.0    0.04    1.08    1.44    13.44564    14.28418    -8.97834
   885  H   1.0    0.04    1.08    1.44    17.74545    13.82015   -11.18558
   886  H   1.0    0.04    1.07    1.44    15.48719    14.99417   -13.12106
   887  H   1.0    0.05    0.99    1.43    20.28428    18.00299   -13.34106
   888  N   5.0   -0.15    3.51    2.09    16.83222    13.23833    -5.93769
   889  C   4.0    0.04    4.45    4.46    18.44810    12.66785    -3.76463
   890  C   4.0    0.16    3.50    3.12    19.89392    10.30531    -4.53968
   891  O   6.0   -0.29    1.25    1.80    18.71254     8.43966    -5.39247
   892  C   4.0   -0.02    4.32    4.24    16.92791    12.35730    -1.33792
   893  C   4.0    0.16    3.27    3.05    18.45986    11.11894     0.74604
   894  O   6.0   -0.32    1.31    1.80    19.02494     8.89212     0.57558
   895  N   5.0   -0.20    3.23    1.96    18.97147    12.50357     2.73325
   896  H   1.0    0.09    1.10    1.44    16.07837    11.84208    -6.79780
   897  H   1.0    0.07    1.08    1.44    19.69768    14.25943    -3.59976
   898  H   1.0    0.06    1.04    1.44    16.26347    14.17393    -0.76459
   899  H   1.0    0.05    1.05    1.44    15.36963    11.14941    -1.75239
   900  H   1.0    0.12    1.08    1.44    18.59866    14.31128     2.73173
   901  H   1.0    0.12    1.07    1.44    19.95228    11.79063     4.10727
   902  N   5.0   -0.15    3.46    2.05    22.36824    10.35014    -4.33859
   903  C   4.0    0.04    4.50    4.54    23.86032     8.25886    -5.47671
   904  C   4.0    0.16    3.39    3.08    23.51962     5.73217    -4.02521
   905  O   6.0   -0.29    1.25    1.80    23.91941     3.76950    -5.13974
   906  C   4.0   -0.02    4.30    4.19    26.68284     8.94131    -5.63951
   907  C   4.0   -0.07    4.19    3.98    26.98036    11.07962    -7.42258
   908  C   4.0   -0.07    4.17    3.94    27.82532     9.50742    -3.08471
   909  H   1.0    0.10    1.10    1.44    23.22208    11.80791    -3.62109
   910  H   1.0    0.06    1.07    1.44    23.23353     7.98637    -7.39795
   911  H   1.0    0.05    1.07    1.44    27.63399     7.31690    -6.46981
   912  H   1.0    0.06    1.03    1.43    27.91367    12.59972    -6.45785
   913  H   1.0    0.05    1.01    1.43    25.26252    11.92254    -8.12281
   914  H   1.0    0.04    1.01    1.43    28.17551    10.68833    -8.99040
   915  H   1.0    0.05    1.02    1.43    27.00493    11.13835    -2.27141
   916  H   1.0    0.04    1.01    1.43    29.78740     9.96042    -3.47555
   917  H   1.0    0.05    1.02    1.43    27.81996     7.92482    -1.89457
   918  N   5.0   -0.14    3.48    2.06    22.60297     5.72470    -1.68309
   919  C   4.0    0.05    4.39    4.36    22.04143     3.38682    -0.32000
   920  C   4.0    0.16    3.41    3.08    19.41979     2.29918    -0.99529
   921  O   6.0   -0.29    1.24    1.80    19.10715     0.03552    -1.14740
   922  C   4.0   -0.03    4.26    4.12    22.11585     3.91098     2.56434
   923  C   4.0   -0.03    4.18    3.95    21.52811     1.66840     4.29157
   924  C   4.0    0.16    3.21    3.04    23.54595    -0.45409     4.13023
   925  O   6.0   -0.29    1.22    1.80    25.73663     0.03236     3.67402
   926  N   5.0   -0.20    3.20    1.96    22.76997    -2.79690     4.48203
   927  H   1.0    0.11    1.11    1.45    22.17856     7.26624    -0.77706
   928  H   1.0    0.07    1.05    1.44    23.48834     1.99298    -0.81777
   929  H   1.0    0.06    1.04    1.43    23.96633     4.62736     3.01710
   930  H   1.0    0.06    1.03    1.43    20.80768     5.44349     2.99657
   931  H   1.0    0.04    1.02    1.43    21.46639     2.29987     6.26604
   932  H   1.0    0.05    1.03    1.43    19.69258     0.83310     3.84836
   933  H   1.0    0.09    1.04    1.44    21.04124    -3.25344     4.87351
   934  H   1.0    0.10    1.05    1.44    23.96197    -4.16195     4.46909
   935  N   5.0   -0.14    3.47    2.06    17.55937     3.93829    -1.19154
   936  C   4.0    0.04    4.33    4.26    14.88477     3.09527    -1.24531
   937  C   4.0    0.09    3.19    3.03    13.56154     3.46104    -3.77000
   938  O   6.0   -0.29    1.13    1.80    11.85010     2.04225    -4.34431
   939  C   4.0   -0.03    4.32    4.24    13.43165     4.58886     0.82600
   940  C   4.0   -0.01    3.55    3.14    14.37229     4.08581     3.49959
   941  C   4.0   -0.04    3.49    3.11    14.01130     1.79067     4.56797
   942  C   4.0   -0.04    3.47    3.10    15.52717     6.02692     4.86071
   943  C   4.0   -0.05    3.40    3.08    14.79731     1.33848     7.03076
   944  C   4.0   -0.04    3.35    3.07    16.28465     5.61106     7.38614
   945  C   4.0   -0.04    3.39    3.08    15.88851     3.25946     8.40482
   946  H   1.0    0.12    1.11    1.45    17.83392     5.72688    -1.14840
   947  H   1.0    0.07    1.08    1.44    14.83634     1.10341    -0.86769
   948  H   1.0    0.05    1.03    1.43    13.53288     6.59633     0.36301
   949  H   1.0    0.05    1.05    1.44    11.53080     3.97043     0.57423
   950  H   1.0    0.05    1.05    1.44    13.01941     0.34863     3.59374
   951  H   1.0    0.06    1.04    1.43    15.85224     7.77214     3.96331
   952  H   1.0    0.05    1.04    1.43    14.54730    -0.46423     7.87463
   953  H   1.0    0.06    1.02    1.43    17.12889     7.14711     8.44435
   954  H   1.0    0.06    1.02    1.43    16.47781     2.94318    10.36280
   955  N   5.0   -0.20    3.22    1.96    35.99215    21.36982   -11.24509
   956  C   4.0    0.04    4.17    3.95    37.84529    20.89363    -9.28129
   957  C   4.0    0.08    3.22    3.04    38.96826    18.28793    -9.51031
   958  O   6.0   -0.28    1.12    1.80    37.56533    16.38942    -9.83221
   959  C   4.0    0.05    4.14    3.88    36.59349    21.13990    -6.55558
   960  O   6.0   -0.25    2.09    1.84    38.13800    20.36028    -4.58419
   961  H   1.0    0.12    1.08    1.44    34.27408    21.67943   -10.80499
   962  H   1.0    0.04    1.08    1.44    39.25654    22.29758    -9.28530
   963  H   1.0    0.05    0.99    1.43    35.97403    23.15197    -6.38315
   964  H   1.0    0.07    1.05    1.44    35.02541    19.96100    -6.51862
   965  H   1.0    0.13    1.06    1.44    37.32259    20.60594    -3.05559
   966  N   5.0   -0.22    3.22    1.96    32.04294    42.01020    40.17702
   967  C   4.0    0.14    3.55    3.14    32.56661    43.98773    36.12734
   968  O   6.0   -0.30    1.28    1.80    32.56334    46.27423    35.67523
   969  H   1.0    0.09    1.06    1.44    33.49008    43.12044    40.50372
   970  H   1.0    0.06    1.11    1.44    29.86765    41.31096    37.16206
   971  C   4.0    0.03    4.39    4.36    30.74393    42.87910    37.95737
   972  C   4.0   -0.03    4.35    4.29    28.54351    44.85007    38.38322
   973  C   4.0   -0.02    3.53    3.13    26.18106    43.71389    39.31600
   974  C   4.0   -0.04    3.50    3.12    24.29366    42.80259    37.74380
   975  C   4.0   -0.05    3.47    3.10    25.83208    43.42102    41.90533
   976  C   4.0   -0.04    3.41    3.08    22.11347    41.62911    38.53066
   977  C   4.0   -0.05    3.43    3.09    23.63299    42.16194    42.79396
   978  C   4.0    0.06    3.47    3.10    21.86733    41.32594    41.09140
   979  O   6.0   -0.26    2.11    1.84    19.68225    40.02917    41.92012
   980  H   1.0    0.04    1.05    1.44    29.21089    46.12352    39.83804
   981  H   1.0    0.06    1.04    1.43    28.23505    45.94094    36.68104
   982  H   1.0    0.06    1.01    1.43    24.56016    43.02726    35.67089
   983  H   1.0    0.04    1.03    1.43    27.16491    44.01273    43.31949
   984  H   1.0    0.06    1.02    1.43    20.68776    40.93468    37.22495
   985  H   1.0    0.05    1.03    1.43    23.26970    41.86659    44.76439
   986  H   1.0    0.12    1.05    1.44    19.74064    39.87178    43.67946
   987  N   5.0   -0.09    3.69    2.26    34.18015    42.39326    35.00069
   988  C   4.0    0.03    4.55    4.61    35.90608    43.44208    33.02867
   989  C   4.0    0.16    3.48    3.11    34.36350    44.20248    30.75367
   990  O   6.0   -0.31    1.32    1.80    32.17636    43.47662    30.43611
   991  C   4.0   -0.04    4.33    4.25    37.60690    41.11718    32.40727
   992  C   4.0   -0.04    4.27    4.15    35.86082    38.86626    32.95101
   993  C   4.0   -0.02    4.36    4.31    34.41199    39.65363    35.30436
   994  H   1.0    0.05    1.05    1.44    36.85750    45.07216    33.79312
   995  H   1.0    0.05    1.04    1.43    38.17010    41.15666    30.47760
   996  H   1.0    0.04    1.03    1.43    39.20652    41.05210    33.63933
   997  H   1.0    0.05    1.01    1.43    34.49739    38.63077    31.35153
   998  H   1.0    0.04    1.05    1.44    36.88133    37.21825    33.24737
   999  H   1.0    0.06    1.06    1.44    32.68815    38.77414    35.36439
  1000  H   1.0    0.04    1.03    1.43    35.39855    39.31451    37.04760
  1001  N   5.0   -0.14    3.51    2.08    35.49410    45.76660    29.11808
[...]
  1519  H   0.998    C 1514 0.982
  1520  H   0.998    C 1514 0.982
  1521  H   0.998    C 1514 0.987
  1522  H   0.997    C 1515 0.981
  1523  H   0.998    C 1515 0.982
  1524  H   0.998    C 1515 0.985
  1525  N   3.449    C 1511 1.279    C 1526 0.985    H 1534 0.921    O 1512 0.188
  1526  C   3.969    N 1525 0.985    C 1529 0.975    H 1535 0.955    C 1527 0.925    O 1528 0.052
  1527  C   3.946    O 1528 1.630    N 1542 1.315    C 1526 0.925
  1528  O   1.964    C 1527 1.630    N 1542 0.194    C 1526 0.052
  1529  C   3.987    C 1530 1.009    C 1526 0.975    H 1536 0.969    H 1537 0.968
  1530  C   3.994    C 1529 1.009    H 1539 0.970    C 1531 0.953    H 1538 0.952    O 1532 0.060
  1531  C   3.936    O 1532 1.644    N 1533 1.311    C 1530 0.953
  1532  O   1.943    C 1531 1.644    N 1533 0.193    C 1530 0.060
  1533  N   3.401    C 1531 1.311    H 1541 0.935    H 1540 0.914    O 1532 0.193
  1534  H   0.952    N 1525 0.921
  1535  H   0.993    C 1526 0.955
  1536  H   0.993    C 1529 0.969
  1537  H   0.994    C 1529 0.968
  1538  H   0.995    C 1530 0.952
  1539  H   0.997    C 1530 0.970
  1540  H   0.950    N 1533 0.914
  1541  H   0.960    N 1533 0.935
  1542  N   3.468    C 1527 1.315    C 1543 0.965    H 1553 0.922    O 1528 0.194
  1543  C   3.960    C 1544 0.985    N 1542 0.965    H 1554 0.947    C 1546 0.939    O 1545 0.061
  1544  C   3.900    O 1545 1.903    C 1543 0.985    H 1853 0.949
  1545  O   2.048    C 1544 1.903    C 1543 0.061
  1546  C   3.980    C 1547 0.999    H 1555 0.971    H 1556 0.961    C 1543 0.939
  1547  C   3.987    C 1548 1.440    C 1549 1.406    C 1546 0.999    C 1552 0.098
  1548  C   3.994    C 1547 1.440    C 1550 1.423    H 1557 0.966    C 1551 0.111
  1549  C   3.987    C 1551 1.429    C 1547 1.406    H 1558 0.969    C 1550 0.123
  1550  C   3.992    C 1552 1.442    C 1548 1.423    H 1559 0.960    C 1549 0.123
  1551  C   3.988    C 1552 1.450    C 1549 1.429    H 1560 0.966    C 1548 0.111
  1552  C   3.990    C 1551 1.450    C 1550 1.442    H 1561 0.964    C 1547 0.098
  1553  H   0.950    N 1542 0.922
  1554  H   0.990    C 1543 0.947
  1555  H   0.994    C 1546 0.971
  1556  H   0.993    C 1546 0.961
  1557  H   0.999    C 1548 0.966
  1558  H   0.996    C 1549 0.969
  1559  H   0.999    C 1550 0.960
  1560  H   0.997    C 1551 0.966
  1561  H   0.998    C 1552 0.964
  1562  N   3.002    C 1563 1.019    H 1854 0.949    H 1568 0.926
  1563  C   3.988    N 1562 1.019    C 1566 0.985    H 1569 0.957    C 1564 0.945    O 1565 0.058
  1564  C   3.897    O 1565 1.921    H 1855 0.950    C 1563 0.945
  1565  O   2.058    C 1564 1.921    C 1563 0.058
  1566  C   3.977    C 1563 0.985    H 1571 0.964    H 1570 0.962    S 1567 0.956
  1567  S   2.315    S  783 1.224    C 1566 0.956
  1568  H   0.968    N 1562 0.926
  1569  H   0.997    C 1563 0.957
  1570  H   0.998    C 1566 0.962
  1571  H   0.996    C 1566 0.964
  1572  N   2.994    C 1573 1.025    H 1580 0.957    H 1856 0.948
  1573  C   3.986    N 1572 1.025    C 1574 0.993    C 1576 0.955    H 1581 0.923    O 1575 0.065
  1574  C   3.900    O 1575 1.877    C 1573 0.993    H 1857 0.951
  1575  O   2.041    C 1574 1.877    C 1573 0.065
  1576  C   3.990    C 1577 0.998    H 1582 0.972    H 1583 0.966    C 1573 0.955
  1577  C   3.996    C 1578 1.011    C 1579 1.004    C 1576 0.998    H 1584 0.964
  1578  C   3.994    C 1577 1.011    H 1585 0.983    H 1586 0.981    H 1587 0.973
  1579  C   3.993    C 1577 1.004    H 1588 0.986    H 1589 0.986    H 1590 0.982
  1580  H   0.973    N 1572 0.957
  1581  H   0.992    C 1573 0.923
  1582  H   0.999    C 1576 0.972
  1583  H   0.998    C 1576 0.966
  1584  H   0.999    C 1577 0.964
  1585  H   0.998    C 1578 0.983
  1586  H   1.000    C 1578 0.981
  1587  H   0.998    C 1578 0.973
  1588  H   0.997    C 1579 0.986
  1589  H   0.997    C 1579 0.986
  1590  H   0.998    C 1579 0.982
  1591  N   3.007    C 1592 1.024    H 1599 0.954    H 1858 0.952
  1592  C   3.986    N 1591 1.024    C 1593 0.978    H 1600 0.956    C 1595 0.946    O 1594 0.056
  1593  C   3.900    O 1594 1.900    C 1592 0.978    H 1859 0.956
  1594  O   2.032    C 1593 1.900    C 1592 0.056
  1595  C   3.992    C 1596 0.989    H 1602 0.975    H 1601 0.974    C 1592 0.946
  1596  C   3.995    C 1598 1.008    C 1597 1.008    C 1595 0.989    H 1603 0.965
  1597  C   3.991    C 1596 1.008    H 1605 0.984    H 1604 0.983    H 1606 0.982
  1598  C   3.996    C 1596 1.008    H 1609 0.985    H 1608 0.981    H 1607 0.978
  1599  H   0.971    N 1591 0.954
  1600  H   0.996    C 1592 0.956
  1601  H   0.996    C 1595 0.974
  1602  H   0.999    C 1595 0.975
  1603  H   0.998    C 1596 0.965
  1604  H   0.998    C 1597 0.983
  1605  H   1.000    C 1597 0.984
  1606  H   0.997    C 1597 0.982
  1607  H   0.999    C 1598 0.978
  1608  H   0.998    C 1598 0.981
  1609  H   1.000    C 1598 0.985
  1610  N   2.994    C 1611 1.015    H 1622 0.953    H 1860 0.951
  1611  C   3.987    N 1610 1.015    C 1612 0.994    H 1623 0.963    C 1614 0.927    O 1613 0.053
  1612  C   3.901    O 1613 1.890    C 1611 0.994    H 1861 0.957
  1613  O   2.025    C 1612 1.890    C 1611 0.053
  1614  C   3.992    C 1615 1.022    H 1625 0.970    H 1624 0.962    C 1611 0.927
  1615  C   3.989    C 1617 1.408    C 1616 1.394    C 1614 1.022    C 1620 0.093
  1616  C   3.990    C 1618 1.459    C 1615 1.394    H 1626 0.971    C 1619 0.105
  1617  C   3.991    C 1619 1.452    C 1615 1.408    H 1627 0.966    C 1618 0.105
  1618  C   3.986    C 1616 1.459    C 1620 1.355    H 1628 0.966    C 1617 0.105
  1619  C   3.989    C 1617 1.452    C 1620 1.369    H 1629 0.963    C 1616 0.105    O 1621 0.062
  1620  C   3.932    C 1619 1.369    C 1618 1.355    O 1621 1.072    C 1615 0.093
  1621  O   2.122    C 1620 1.072    H 1630 0.877    C 1619 0.062
  1622  H   0.968    N 1610 0.953
  1623  H   0.996    C 1611 0.963
  1624  H   0.996    C 1614 0.962
  1625  H   0.996    C 1614 0.970
  1626  H   0.996    C 1616 0.971
  1627  H   0.998    C 1617 0.966
  1628  H   0.996    C 1618 0.966
  1629  H   0.999    C 1619 0.963
  1630  H   0.911    O 1621 0.877
  1631  N   3.048    C 1632 1.019    C 1637 0.987    H 1820 0.949
  1632  C   3.988    N 1631 1.019    C 1635 0.960    H 1638 0.958    C 1633 0.948
  1633  C   3.933    O 1634 1.635    N 1645 1.270    C 1632 0.948
  1634  O   1.968    C 1633 1.635    N 1645 0.187
  1635  C   3.993    C 1636 0.998    H 1639 0.983    H 1640 0.980    C 1632 0.960
  1636  C   3.995    C 1637 1.016    C 1635 0.998    H 1641 0.977    H 1642 0.975
  1637  C   3.983    C 1636 1.016    N 1631 0.987    H 1644 0.972    H 1643 0.962
  1638  H   0.997    C 1632 0.958
  1639  H   0.999    C 1635 0.983
  1640  H   0.996    C 1635 0.980
  1641  H   0.997    C 1636 0.977
  1642  H   0.997    C 1636 0.975
  1643  H   0.998    C 1637 0.962
  1644  H   0.995    C 1637 0.972
  1645  N   3.446    C 1633 1.270    C 1646 1.002    H 1649 0.908    O 1634 0.187
  1646  C   3.974    N 1645 1.002    C 1647 0.961    H 1651 0.956    H 1650 0.952
  1647  C   3.945    O 1648 1.619    N 1652 1.292    C 1646 0.961
  1648  O   1.932    C 1647 1.619    N 1652 0.188
  1649  H   0.948    N 1645 0.908
  1650  H   0.993    C 1646 0.952
  1651  H   0.989    C 1646 0.956
  1652  N   3.468    C 1647 1.292    C 1653 0.990    H 1660 0.914    O 1648 0.188
  1653  C   3.971    N 1652 0.990    C 1656 0.977    C 1654 0.960    H 1661 0.923
  1654  C   3.945    O 1655 1.590    N 1666 1.278    C 1653 0.960
  1655  O   1.980    C 1654 1.590    N 1666 0.183    H  433 0.066
  1656  C   3.990    C 1653 0.977    C 1657 0.971    H 1662 0.955    H 1663 0.955    O 1658 0.053
  1657  C   3.952    O 1658 1.638    N 1659 1.317    C 1656 0.971
  1658  O   1.948    C 1657 1.638    N 1659 0.198    C 1656 0.053
  1659  N   3.408    C 1657 1.317    H 1664 0.923    H 1665 0.907    O 1658 0.198
  1660  H   0.951    N 1652 0.914
  1661  H   0.989    C 1653 0.923
  1662  H   0.990    C 1656 0.955
  1663  H   0.993    C 1656 0.955
  1664  H   0.957    N 1659 0.923
  1665  H   0.940    N 1659 0.907
  1666  N   3.484    C 1654 1.278    C 1667 0.970    C 1672 0.952    O 1655 0.183
  1667  C   3.963    C 1670 0.977    N 1666 0.970    C 1668 0.943    H 1673 0.942
  1668  C   3.950    O 1669 1.580    N 1680 1.336    C 1667 0.943
  1669  O   1.915    C 1668 1.580    N 1680 0.193
  1670  C   3.985    C 1671 1.005    C 1667 0.977    H 1674 0.970    H 1675 0.970
  1671  C   3.990    C 1672 1.011    C 1670 1.005    H 1676 0.975    H 1677 0.968
  1672  C   3.962    C 1671 1.011    H 1679 0.966    H 1678 0.964    N 1666 0.952
  1673  H   0.990    C 1667 0.942
  1674  H   0.994    C 1670 0.970
  1675  H   0.991    C 1670 0.970
  1676  H   0.997    C 1671 0.975
  1677  H   0.995    C 1671 0.968
  1678  H   0.998    C 1672 0.964
  1679  H   0.992    C 1672 0.966
  1680  N   3.501    C 1668 1.336    C 1681 0.972    H 1688 0.904    O 1669 0.193
  1681  C   3.956    C 1684 0.972    N 1680 0.972    C 1682 0.946    H 1689 0.943
  1682  C   3.961    O 1683 1.577    N 1692 1.343    C 1681 0.946
  1683  O   1.911    C 1682 1.577    N 1692 0.197
  1684  C   3.986    C 1681 0.972    H 1690 0.961    C 1685 0.954    H 1691 0.951
  1685  C   3.943    O 1686 1.499    O 1687 1.459    C 1684 0.954
  1686  O   1.828    C 1685 1.499    O 1687 0.219
  1687  O   1.766    C 1685 1.459    O 1686 0.219
  1688  H   0.958    N 1680 0.904
  1689  H   0.993    C 1681 0.943
  1690  H   0.999    C 1684 0.961
  1691  H   0.995    C 1684 0.951
  1692  N   3.494    C 1682 1.343    C 1693 0.988    H 1696 0.892    O 1683 0.197
  1693  C   3.958    C 1694 1.024    N 1692 0.988    H 1698 0.926    H 1697 0.914    O 1695 0.065
  1694  C   3.908    O 1695 1.860    C 1693 1.024    H 1821 0.943
  1695  O   2.056    C 1694 1.860    C 1693 0.065
  1696  H   0.945    N 1692 0.892
  1697  H   0.982    C 1693 0.914
  1698  H   0.982    C 1693 0.926
  1699  N   2.999    C 1700 1.024    H 1707 0.950    H 1822 0.948
  1700  C   3.989    N 1699 1.024    C 1703 0.975    C 1701 0.963    H 1708 0.939
  1701  C   3.944    O 1702 1.575    N 1713 1.299    C 1700 0.963
  1702  O   1.962    C 1701 1.575    N 1713 0.185    H 1298 0.068
  1703  C   3.995    C 1700 0.975    C 1704 0.973    H 1710 0.961    H 1709 0.959    O 1705 0.053
  1704  C   3.946    O 1705 1.637    N 1706 1.309    C 1703 0.973
  1705  O   1.937    C 1704 1.637    N 1706 0.193    C 1703 0.053
  1706  N   3.399    C 1704 1.309    H 1711 0.926    H 1712 0.909    O 1705 0.193
  1707  H   0.969    N 1699 0.950
  1708  H   0.996    C 1700 0.939
  1709  H   0.996    C 1703 0.959
  1710  H   0.994    C 1703 0.961
  1711  H   0.960    N 1706 0.926
  1712  H   0.943    N 1706 0.909
  1713  N   3.498    C 1701 1.299    C 1714 0.974    C 1719 0.947    O 1702 0.185
  1714  C   3.966    C 1715 0.983    N 1713 0.974    C 1717 0.963    H 1720 0.932    O 1716 0.060
  1715  C   3.901    O 1716 1.890    C 1714 0.983    H 1823 0.953
  1716  O   2.032    C 1715 1.890    C 1714 0.060
  1717  C   3.983    C 1718 1.006    H 1722 0.972    H 1721 0.970    C 1714 0.963
  1718  C   3.987    C 1719 1.011    C 1717 1.006    H 1723 0.975    H 1724 0.967
  1719  C   3.956    C 1718 1.011    H 1726 0.968    H 1725 0.961    N 1713 0.947
  1720  H   0.988    C 1714 0.932
  1721  H   0.992    C 1717 0.970
  1722  H   0.994    C 1717 0.972
  1723  H   0.994    C 1718 0.975
  1724  H   0.992    C 1718 0.967
  1725  H   0.995    C 1719 0.961
  1726  H   0.995    C 1719 0.968
  1727  N   2.994    C 1728 1.015    H 1739 0.953    H 1824 0.951
  1728  C   3.986    N 1727 1.015    C 1729 0.994    H 1740 0.963    C 1731 0.927    O 1730 0.054
  1729  C   3.901    O 1730 1.889    C 1728 0.994    H 1825 0.958
  1730  O   2.024    C 1729 1.889    C 1728 0.054
  1731  C   3.992    C 1732 1.022    H 1742 0.970    H 1741 0.962    C 1728 0.927
  1732  C   3.989    C 1734 1.408    C 1733 1.396    C 1731 1.022    C 1737 0.094
  1733  C   3.991    C 1735 1.458    C 1732 1.396    H 1743 0.972    C 1736 0.106
  1734  C   3.992    C 1736 1.452    C 1732 1.408    H 1744 0.967    C 1735 0.105
  1735  C   3.986    C 1733 1.458    C 1737 1.361    H 1745 0.971    C 1734 0.105
  1736  C   3.990    C 1734 1.452    C 1737 1.371    H 1746 0.963    C 1733 0.106    O 1738 0.060
  1737  C   3.935    C 1736 1.371    C 1735 1.361    O 1738 1.067    C 1732 0.094
  1738  O   2.105    C 1737 1.067    H 1747 0.870    C 1736 0.060
  1739  H   0.968    N 1727 0.953
  1740  H   0.996    C 1728 0.963
  1741  H   0.996    C 1731 0.962
  1742  H   0.996    C 1731 0.970
  1743  H   0.997    C 1733 0.972
  1744  H   0.998    C 1734 0.967
  1745  H   0.996    C 1735 0.971
  1746  H   0.999    C 1736 0.963
  1747  H   0.904    O 1738 0.870
  1748  N   2.986    C 1749 1.017    H 1755 0.952    H 1826 0.946
  1749  C   3.989    N 1748 1.017    H 1756 0.957    C 1752 0.956    C 1750 0.941    O 1751 0.054
  1750  C   3.938    O 1751 1.675    N 1762 1.250    C 1749 0.941
  1751  O   1.978    C 1750 1.675    N 1762 0.189    C 1749 0.054
  1752  C   3.965    O 1753 0.998    C 1754 0.997    H 1757 0.962    C 1749 0.956
  1753  O   1.949    C 1752 0.998    H 1758 0.851
  1754  C   3.994    C 1752 0.997    H 1760 0.984    H 1759 0.982    H 1761 0.980
  1755  H   0.968    N 1748 0.952
  1756  H   0.998    C 1749 0.957
  1757  H   0.998    C 1752 0.962
  1758  H   0.892    O 1753 0.851
  1759  H   0.999    C 1754 0.982
  1760  H   0.999    C 1754 0.984
  1761  H   0.995    C 1754 0.980
  1762  N   3.441    C 1750 1.250    C 1763 0.992    H 1768 0.917    O 1751 0.189
  1763  C   3.975    C 1766 1.000    N 1762 0.992    H 1769 0.954    C 1764 0.908    O 1765 0.050
  1764  C   3.952    O 1765 1.572    N 1773 1.375    C 1763 0.908
  1765  O   1.931    C 1764 1.572    N 1773 0.199    C 1763 0.050
  1766  C   3.975    C 1763 1.000    H 1770 0.971    H 1771 0.969    S 1767 0.965
  1767  S   1.974    C 1766 0.965    H 1772 0.925
  1768  H   0.956    N 1762 0.917
  1769  H   0.994    C 1763 0.954
  1770  H   0.998    C 1766 0.971
  1771  H   0.998    C 1766 0.969
  1772  H   0.962    S 1767 0.925
  1773  N   3.525    C 1764 1.375    C 1774 0.963    H 1785 0.918    O 1765 0.199
  1774  C   3.949    N 1773 0.963    H 1786 0.957    C 1777 0.947    C 1775 0.945
  1775  C   3.954    O 1776 1.604    N 1794 1.327    C 1774 0.945
  1776  O   1.925    C 1775 1.604    N 1794 0.201
  1777  C   3.982    C 1778 1.015    H 1788 0.969    H 1787 0.964    C 1774 0.947
  1778  C   3.985    C 1780 1.410    C 1779 1.396    C 1777 1.015    C 1783 0.094
  1779  C   3.991    C 1781 1.462    C 1778 1.396    H 1789 0.973    C 1782 0.104
  1780  C   3.991    C 1782 1.454    C 1778 1.410    H 1790 0.966    C 1781 0.105
  1781  C   3.990    C 1779 1.462    C 1783 1.359    H 1791 0.971    C 1780 0.105
  1782  C   3.986    C 1780 1.454    C 1783 1.368    H 1792 0.964    C 1779 0.104    O 1784 0.063
  1783  C   3.945    C 1782 1.368    C 1781 1.359    O 1784 1.090    C 1778 0.094
  1784  O   2.104    C 1783 1.090    H 1793 0.850    C 1782 0.063
  1785  H   0.948    N 1773 0.918
  1786  H   0.993    C 1774 0.957
  1787  H   0.994    C 1777 0.964
  1788  H   0.995    C 1777 0.969
  1789  H   0.998    C 1779 0.973
  1790  H   0.997    C 1780 0.966
  1791  H   0.996    C 1781 0.971
  1792  H   0.996    C 1782 0.964
  1793  H   0.871    O 1784 0.850
  1794  N   3.492    C 1775 1.327    C 1795 0.971    H 1806 0.905    O 1776 0.201
  1795  C   3.961    N 1794 0.971    C 1796 0.958    H 1807 0.958    C 1798 0.952    O 1797 0.058
  1796  C   3.906    O 1797 1.936    C 1795 0.958    H 1827 0.950
  1797  O   2.073    C 1796 1.936    C 1795 0.058
  1798  C   3.982    C 1799 1.004    H 1808 0.969    H 1809 0.967    C 1795 0.952
  1799  C   3.986    C 1800 1.450    C 1801 1.368    C 1798 1.004    C 1804 0.097
  1800  C   3.992    C 1799 1.450    C 1802 1.409    H 1810 0.970    C 1803 0.107
  1801  C   3.992    C 1803 1.500    C 1799 1.368    H 1811 0.967    C 1802 0.103
  1802  C   3.988    C 1804 1.419    C 1800 1.409    H 1812 0.967    C 1801 0.103    O 1805 0.052
  1803  C   3.989    C 1801 1.500    C 1804 1.330    H 1813 0.967    C 1800 0.107    O 1805 0.052
  1804  C   3.941    C 1802 1.419    C 1803 1.330    O 1805 1.059    C 1799 0.097
  1805  O   2.072    C 1804 1.059    H 1814 0.859    C 1802 0.052    C 1803 0.052
  1806  H   0.948    N 1794 0.905
  1807  H   0.996    C 1795 0.958
  1808  H   0.997    C 1798 0.969
  1809  H   0.994    C 1798 0.967
  1810  H   0.997    C 1800 0.970
  1811  H   0.999    C 1801 0.967
  1812  H   0.994    C 1802 0.967
  1813  H   0.997    C 1803 0.967
  1814  H   0.875    O 1805 0.859
  1815  H   0.959    N    1 0.945
  1816  H   0.992    C  115 0.950
  1817  H   0.962    N  129 0.946
  1818  H   0.990    C  309 0.951
  1819  H   0.969    N  314 0.955
  1820  H   0.962    N 1631 0.949
  1821  H   0.984    C 1694 0.943
  1822  H   0.963    N 1699 0.948
  1823  H   0.992    C 1715 0.953
  1824  H   0.965    N 1727 0.951
  1825  H   0.995    C 1729 0.958
  1826  H   0.961    N 1748 0.946
  1827  H   0.993    C 1796 0.950
  1828  H   0.984    C  703 0.945
  1829  H   0.991    C  741 0.948
  1830  H   0.992    C  770 0.953
  1831  H   0.959    N  778 0.944
  1832  H   0.988    C  868 0.950
  1833  H   0.959    N  877 0.946
  1834  H   0.994    C  937 0.952
  1835  H   0.963    N  955 0.951
  1836  H   0.994    C  957 0.957
  1837  H   0.961    N  966 0.945
  1838  H   0.993    C 1071 0.954
  1839  H   0.970    N 1088 0.960
  1840  H   0.992    C 1090 0.949
  1841  H   0.965    N 1104 0.952
  1842  H   0.992    C 1106 0.950
  1843  H   0.968    N 1114 0.951
  1844  H   0.986    C 1200 0.948
  1845  H   0.973    N 1205 0.960
  1846  H   0.963    N 1299 0.948
  1847  H   0.993    C 1389 0.952
  1848  H   0.971    N 1401 0.959
  1849  H   0.993    C 1459 0.948
  1850  H   0.968    N 1476 0.951
  1851  H   0.992    C 1497 0.953
  1852  H   0.968    N 1509 0.958
  1853  H   0.992    C 1544 0.949
  1854  H   0.971    N 1562 0.949
  1855  H   0.992    C 1564 0.950
  1856  H   0.965    N 1572 0.948
  1857  H   0.994    C 1574 0.951
  1858  H   0.970    N 1591 0.952
  1859  H   0.995    C 1593 0.956
  1860  H   0.965    N 1610 0.951
  1861  H   0.995    C 1612 0.957
 
molecular dipole:
                 x           y           z       tot (Debye)
 q only:     -100.339       9.227     -69.891
   full:      -96.000      12.053     -68.969     302.015
molecular quadrupole (traceless):
                xx          xy          yy          xz          yz          zz
 q only:    -3828.103   -1363.626    5302.495   -3790.287    -125.620   -1474.392
  q+dip:    -3806.310    -969.107    5360.237   -3591.644     -96.895   -1553.927
   full:    -3796.346    -969.929    5343.127   -3592.550     -97.493   -1546.782
speedup  7.95
cpu  time for grad   37 m 18.3 s
wall time for grad    4 m 41.6 s

SCC energy    :   -2980.4798548
rep           :      38.1245685
ES            :       9.4774388
AES           :      -0.4641558
AXC           :       0.6694621
disp          :      -2.8002718
XB            :       0.0000000
fix           :       0.0000000
Gborn         :       0.0000000
Gsasa         :       0.0000000
Ghb           :       0.0000000
Gshift        :       0.0000000
Gsolv         :      -1.9113991    -1199.42
Etot ala COSMO:   -2980.4798548
grad norm     :       1.9060102
total E       :   -2941.9613197
atomizationE  :     509.2427379   319554.64
(atE without considering molecular charge,
 total energy contains solvation terms)
H-L gap (eV)  :          0.2961

------------------------------------------------------------------------
 * finished run on 2019/02/22 at 14:19:09.340     
------------------------------------------------------------------------
 total:
 * wall-time:     0 d,  0 h,  4 min, 51.418 sec
 *  cpu-time:     0 d,  0 h, 37 min, 39.232 sec
 * ratio c/w:     7.753 speedup
 SCF:
 * wall-time:     0 d,  0 h,  4 min, 45.436 sec
 *  cpu-time:     0 d,  0 h, 37 min, 31.001 sec
 * ratio c/w:     7.886 speedup

