      -----------------------------------------------------------      
     |                   =====================                   |     
     |                           x T B                           |     
     |                   =====================                   |     
     |                         S. Grimme                         |     
     |          Mulliken Center for Theoretical Chemistry        |     
     |                    University of Bonn                     |     
     |                 Version 6.0.1 (SAW181210)                 |     
      -----------------------------------------------------------      

   This program is distributed in the hope that it will be useful,
   but WITHOUT ANY WARRANTY; without even the implied warranty of
   MERCHANTABILITY or FITNESS FOR A PARTICULAR PURPOSE.
   
   FOR NON-COMMERCIAL, ACADEMIA USE ONLY.
   
   Cite this work as:
   S. Grimme, C. Bannwarth, P. Shushkov, J. Comput. Theory Chem., 2017,
   13, 1989-2009.
   C. Bannwarth, S. Ehlert and S. Grimme., ChemRxiv, 2018, preprint.
   http://doi.org/10.26434/chemrxiv.7246238.v1
   
   for sTDA-xTB:
   S. Grimme and C. Bannwarth, J. Chem. Phys., 2016, 145, 054103.
   
   in the mass-spec context:
   V. Asgeirsson, C. Bauer and S. Grimme, Chem. Sci., 2017, 8, 4879.
   
   if GBSA is used:
   P. Shushkov, F. März and S. Grimme, unpublished.
   
   for ANC optimizer:
   S. Grimme, unpublished.
   Rational Function algorithm used in ANCopt:
   F. Eckert, P. Pulay, H.-J. Werner, J. Comput. Chem., 1997, 18, 1473.
   
   with help from (in alphabetical order)
   C. Bannwarth, F. Bohle, G. Brandenburg, E. Caldeweyher, M. Checinski,
   S. Dohm, S. Ehlert, S. Ehrlich, F. März, H. Neugebauer, J. Pisarek,
   P. Pracht, P. Shushkov, and S. Spicher.
   
 * started run on 2019/02/16 at 08:10:51.721     
========================================================================
 # omp threads = 12
========================================================================
number of atoms            : 518
number of electrons        : 1366
charge                     : -1
spin                       : .0
first test random number   : .5128

########################################################################
# WARNING! Please study the warnings concerning your input carefully
#  - Process number higher than OMP_NUM_THREADS, I hope you know what you are doing.
########################################################################

           ------------------------------------------------- 
          |                 G F N 2 - x T B                 |
          | Geometry, Frequencies, Noncovalent interactions |
          |            JCTC 2018 parametrisation            |
           ------------------------------------------------- 
 
      method parameters     
 k(s)        :  1.8500
 k(p)        :  2.2300
 k(d)        :  2.2300
 k(f)        :  2.0000
 kEN (H0ij)  : -2.0000
 D4 a1       :  0.5200
 D4 a2       :  5.0000
 D4 s6       :  1.0000
 D4 s8       :  2.7000
 D4 s9       :  5.0000
 alphaj      :  2.0000

 Solvent             : h2o
 Using internal parameter file: .param_gbsa2_h2o
 Gsolv ref. state (COSMO-RS): gsolv [1 M gas/solution]
 temperature (mdtemp)       :    298.150000000000     
 dielectric constant        :    80.2000000000000     
 rho                        :    1.00000000000000     
 mass                       :    18.0000000000000     
 surface tension            :    15.5689454083859     
 probe radius               :   0.975313790000000     
 vdW radii scaling          :    1.00000000000000     
 Gshift (Eh)                :   1.857443126794793E-003
 c1                         :    1.55243817000000     
 soset                      :   0.130326360000000     
 HB correction              :  T

            Z     q(EN)     CN     RAES       Cart. coordinates
     1  N   5.0   -0.19    3.25    1.97    24.34794    51.46106     6.35925
     2  C   4.0    0.03    4.32    4.24    21.92926    51.82772     7.62342
     3  C   4.0    0.08    3.25    3.04    22.60554    53.05125    10.16427
     4  O   6.0   -0.29    1.14    1.80    24.38111    52.16393    11.41142
     5  C   4.0   -0.02    4.31    4.22    20.53336    49.36061     8.03948
     6  C   4.0   -0.05    4.19    3.98    19.63581    48.31593     5.47811
     7  C   4.0   -0.08    4.13    3.85    18.13863    49.80901     9.67321
     8  C   4.0   -0.08    3.99    3.60    19.08404    45.44458     5.47947
     9  H   1.0    0.09    1.02    1.43    25.48587    50.14367     7.18060
    10  H   1.0    0.04    1.05    1.44    20.82625    53.10560     6.42984
    11  H   1.0    0.05    1.05    1.44    21.79699    48.01247     8.95579
    12  H   1.0    0.04    1.03    1.43    17.94997    49.33954     4.88042
    13  H   1.0    0.04    1.03    1.43    21.09493    48.64990     4.05427
    14  H   1.0    0.04    1.00    1.43    16.98960    48.11592     9.72017
    15  H   1.0    0.04    1.00    1.43    18.63233    50.29627    11.60779
    16  H   1.0    0.04    1.00    1.43    17.03114    51.33460     8.86541
    17  H   1.0    0.04    1.00    1.43    18.33822    44.87333     3.65853
    18  H   1.0    0.04    1.00    1.43    20.82358    44.42037     5.84348
    19  H   1.0    0.04    1.00    1.43    17.70789    44.95792     6.92230
    20  N   5.0   -0.21    3.25    1.97    14.15246    47.43322    22.40238
    21  C   4.0    0.03    4.30    4.20    11.57592    46.51015    22.15409
    22  C   4.0    0.14    3.45    3.09    11.08072    46.34724    19.31605
    23  O   6.0   -0.32    1.29    1.80    10.10124    44.49524    18.28096
    24  C   4.0   -0.04    4.23    4.06     9.54037    48.16263    23.34443
    25  C   4.0   -0.03    4.16    3.92     9.76497    48.64897    26.16663
    26  C   4.0    0.25    3.08    3.02     9.72709    46.39680    28.05098
    27  O   6.0   -0.28    1.16    1.80     8.15385    46.56277    29.81955
    28  O   6.0   -0.29    1.16    1.80    11.38376    44.71421    27.82462
    29  H   1.0    0.08    1.02    1.43    14.43478    48.82758    23.71969
    30  H   1.0    0.06    1.05    1.44    11.43808    44.59586    22.94999
    31  H   1.0    0.04    1.03    1.43     9.51926    49.98778    22.38884
    32  H   1.0    0.05    1.03    1.43     7.71856    47.25994    22.96671
    33  H   1.0    0.05    1.03    1.43    11.53807    49.59603    26.58716
    34  H   1.0    0.05    1.03    1.43     8.21686    49.88487    26.73341
    35  N   5.0   -0.15    3.47    2.06    12.00964    48.30930    17.95688
    36  C   4.0    0.03    4.39    4.36    11.53537    48.37945    15.23456
    37  C   4.0    0.15    3.45    3.10    12.91383    46.29151    13.77568
    38  O   6.0   -0.31    1.24    1.80    11.90401    45.08484    12.02166
    39  C   4.0   -0.05    4.24    4.09    12.26251    50.98304    14.16043
    40  C   4.0   -0.05    4.15    3.90    11.43769    51.47674    11.36127
    41  C   4.0   -0.02    4.20    4.00    12.19532    54.20372    10.55483
    42  N   5.0   -0.14    3.44    2.04    10.33896    55.86547    11.88063
    43  C   4.0    0.09    3.34    3.06    10.66440    58.33541    12.05057
    44  N   5.0   -0.18    3.30    1.98    12.87847    59.23687    11.34246
    45  N   5.0   -0.19    3.23    1.96     8.93830    59.78470    13.13096
    46  H   1.0    0.07    1.06    1.44    12.59285    49.91362    18.84234
    47  H   1.0    0.05    1.05    1.44     9.50760    48.04953    14.91179
    48  H   1.0    0.04    1.03    1.43    11.33075    52.40915    15.31883
    49  H   1.0    0.04    1.02    1.43    14.30154    51.22839    14.31317
    50  H   1.0    0.04    1.02    1.43    12.34894    50.09304    10.14601
    51  H   1.0    0.04    1.02    1.43     9.40439    51.23988    11.18418
    52  H   1.0    0.04    1.03    1.43    14.09644    54.58625    11.24131
    53  H   1.0    0.04    1.02    1.43    12.03246    54.46242     8.52532
    54  H   1.0    0.07    1.06    1.44     8.71694    55.07543    12.54160
    55  H   1.0    0.08    1.05    1.44    14.10096    58.20729    10.31602
    56  H   1.0    0.09    1.03    1.43    13.20655    61.13150    11.48378
    57  H   1.0    0.08    1.03    1.43     7.23735    59.07796    13.61946
    58  H   1.0    0.09    1.02    1.43     9.18567    61.67814    13.42764
    59  N   5.0   -0.15    3.48    2.06    15.32144    45.98790    14.48287
    60  C   4.0    0.03    4.41    4.39    16.76298    43.93395    13.45843
    61  C   4.0    0.16    3.49    3.11    15.59107    41.39758    13.87661
    62  O   6.0   -0.31    1.30    1.80    15.24760    39.79014    12.20298
    63  C   4.0   -0.04    4.27    4.14    19.50686    43.90995    14.56151
    64  C   4.0   -0.01    3.51    3.12    20.99704    41.47803    13.95690
    65  C   4.0   -0.03    3.51    3.12    21.96495    40.91892    11.58018
    66  C   4.0   -0.03    3.44    3.09    21.45440    39.71768    15.83483
    67  C   4.0   -0.05    3.34    3.06    23.24060    38.74458    10.87986
    68  C   4.0   -0.03    3.39    3.08    22.69934    37.46466    15.19797
    69  C   4.0   -0.04    3.39    3.08    23.48799    36.94787    12.74539
    70  H   1.0    0.07    1.06    1.44    16.06707    47.02923    15.91828
    71  H   1.0    0.05    1.06    1.44    16.87956    44.14023    11.39205
    72  H   1.0    0.04    1.02    1.43    20.49410    45.55961    13.83590
    73  H   1.0    0.04    1.03    1.43    19.33679    44.06386    16.60773
    74  H   1.0    0.04    1.03    1.43    21.68045    42.34994    10.13204
    75  H   1.0    0.06    1.03    1.43    20.78163    40.00147    17.73719
    76  H   1.0    0.04    1.03    1.43    23.98523    38.50395     9.00688
    77  H   1.0    0.06    1.03    1.43    22.94963    36.04670    16.63950
    78  H   1.0    0.04    1.07    1.44    24.35227    35.15591    12.37136
    79  N   5.0   -0.13    3.45    2.05    14.57373    40.95809    16.21441
    80  C   4.0    0.04    4.38    4.34    13.41511    38.44311    16.69527
    81  C   4.0    0.16    3.40    3.08    10.98252    37.99912    15.04011
    82  O   6.0   -0.30    1.26    1.80    10.55781    35.92201    14.08236
    83  H   1.0    0.08    1.05    1.44    14.81231    42.13174    17.70689
    84  H   1.0    0.06    1.05    1.44    14.75294    36.95513    16.20480
    85  C   4.0   -0.04    4.30    4.19    12.58361    38.36271    19.46577
    86  C   4.0   -0.03    4.18    3.97    14.78496    38.15015    21.31194
    87  C   4.0    0.24    3.20    3.04    15.91016    35.48309    21.10012
    88  O   6.0   -0.31    1.22    1.80    18.07563    35.20736    20.24908
    89  O   6.0   -0.31    1.34    1.80    14.47334    33.72666    21.83657
    90  H   1.0    0.05    1.03    1.43    11.49660    40.08039    19.83932
    91  H   1.0    0.06    1.03    1.43    11.31801    36.75083    19.73386
    92  H   1.0    0.05    1.02    1.43    16.20632    39.58341    20.92730
    93  H   1.0    0.06    1.03    1.43    14.05520    38.39035    23.22593
    94  N   5.0   -0.13    3.47    2.06     9.55538    39.98930    14.60403
    95  C   4.0    0.03    4.43    4.42     7.27057    39.86784    12.95269
    96  C   4.0    0.15    3.51    3.12     8.06928    39.06056    10.32286
    97  O   6.0   -0.33    1.31    1.80     6.99116    37.39087     9.05143
    98  C   4.0   -0.04    4.39    4.36     5.89736    42.36269    13.08243
    99  C   4.0   -0.04    4.13    3.87     3.82980    42.39675    11.14630
   100  S   6.0   -0.04    2.60    3.10     2.60825    45.50043    10.76450
   101  C   4.0   -0.07    3.88    3.43     5.00489    46.97884     8.77059
   102  H   1.0    0.11    1.08    1.44     9.77149    41.58822    15.63928
   103  H   1.0    0.06    1.05    1.44     6.05319    38.35267    13.69478
   104  H   1.0    0.06    1.03    1.43     5.15605    42.62536    14.98714
   105  H   1.0    0.06    1.05    1.44     7.26718    43.86328    12.68942
   106  H   1.0    0.05    1.09    1.44     4.50636    41.75292     9.30527
   107  H   1.0    0.05    1.11    1.44     2.25844    41.18284    11.69572
   108  H   1.0    0.04    1.05    1.44     4.42994    48.93349     8.60954
   109  H   1.0    0.05    1.03    1.43     6.85640    46.82208     9.63967
   110  H   1.0    0.04    1.04    1.43     5.00528    46.06770     6.93271
   111  N   5.0   -0.14    3.51    2.09     9.94744    40.43287     9.28255
   112  C   4.0    0.04    4.47    4.49    10.72294    39.90758     6.79643
   113  C   4.0    0.16    3.47    3.10    11.86036    37.24032     6.53016
   114  O   6.0   -0.32    1.27    1.80    11.61882    35.98009     4.59901
   115  C   4.0   -0.04    4.27    4.15    12.64690    41.83908     5.70920
   116  C   4.0   -0.02    3.50    3.12    11.32175    44.26299     4.85360
   117  C   4.0   -0.04    3.52    3.12     9.25152    44.23117     3.20090
   118  C   4.0   -0.04    3.50    3.12    11.89916    46.60076     5.75340
   119  C   4.0   -0.05    3.41    3.08     7.92410    46.35527     2.56559
   120  C   4.0   -0.05    3.40    3.08    10.71884    48.83302     4.92218
   121  C   4.0   -0.05    3.38    3.07     8.57867    48.66844     3.47303
   122  H   1.0    0.11    1.08    1.44    10.80432    41.82862    10.28825
   123  H   1.0    0.05    1.06    1.44     9.03876    39.87851     5.57594
   124  H   1.0    0.05    1.03    1.43    14.04872    42.24732     7.15692
   125  H   1.0    0.04    1.03    1.43    13.55701    40.96252     4.08467
   126  H   1.0    0.04    1.03    1.43     8.68266    42.43851     2.39219
   127  H   1.0    0.05    1.03    1.43    13.45735    46.79199     7.06288
   128  H   1.0    0.04    1.03    1.43     6.28793    46.15269     1.35715
   129  H   1.0    0.04    1.03    1.43    11.31425    50.60069     5.72506
   130  H   1.0    0.05    1.03    1.43     7.51675    50.32574     2.94549
   131  N   5.0   -0.14    3.51    2.09    13.27482    36.54424     8.45668
   132  C   4.0    0.03    4.42    4.42    14.49205    34.01076     8.40819
   133  C   4.0    0.16    3.44    3.09    12.40793    31.95429     8.34143
   134  O   6.0   -0.31    1.27    1.80    12.59383    30.09712     6.89695
   135  H   1.0    0.12    1.10    1.44    13.56950    37.63423    10.00156
   136  H   1.0    0.05    1.05    1.44    15.55004    33.83457     6.64338
   137  C   4.0   -0.04    4.31    4.21    16.14184    33.74340    10.73486
   138  C   4.0   -0.04    4.24    4.08    17.60008    31.27104    10.60095
   139  C   4.0    0.00    4.25    4.09    16.87618    29.56561    12.74997
   140  N   5.0   -0.14    3.45    2.05    17.51995    30.79038    15.10920
   141  C   4.0    0.11    3.38    3.07    16.00384    30.87816    17.12646
   142  N   5.0   -0.17    3.25    1.97    13.50856    31.18999    16.90957
   143  N   5.0   -0.16    3.34    2.00    17.11286    30.54423    19.37805
   144  H   1.0    0.05    1.03    1.43    17.40960    35.36698    10.80955
   145  H   1.0    0.06    1.04    1.43    14.94117    33.81998    12.40831
   146  H   1.0    0.06    1.04    1.43    17.23078    30.29670     8.82457
   147  H   1.0    0.04    1.03    1.43    19.61934    31.63824    10.72994
   148  H   1.0    0.06    1.04    1.44    14.85835    29.17222    12.69405
   149  H   1.0    0.06    1.02    1.43    17.84331    27.74239    12.59805
   150  H   1.0    0.08    1.08    1.44    19.38960    30.73601    15.50885
   151  H   1.0    0.10    1.04    1.43    12.58557    30.90509    15.27462
   152  H   1.0    0.11    1.04    1.43    12.49144    31.37930    18.50669
   153  H   1.0    0.10    1.05    1.44    18.94810    31.07402    19.47338
   154  H   1.0    0.13    1.16    1.46    16.06413    31.32668    20.85811
   155  N   5.0   -0.13    3.45    2.04    10.33331    32.35433     9.71054
   156  C   4.0    0.04    4.39    4.36     8.30012    30.42585     9.76601
   157  C   4.0    0.16    3.48    3.11     6.95905    30.31244     7.18613
   158  O   6.0   -0.31    1.27    1.80     6.37320    28.25622     6.25650
   159  C   4.0   -0.03    4.24    4.07     6.25715    31.18437    11.75616
   160  C   4.0   -0.03    4.19    3.99     4.58062    28.91226    12.26478
   161  C   4.0    0.25    3.08    3.02     2.36604    29.15475    14.16637
   162  O   6.0   -0.28    1.17    1.80     2.17158    31.13793    15.38418
   163  O   6.0   -0.28    1.16    1.80     0.90907    27.26850    14.31742
   164  H   1.0    0.11    1.09    1.44    10.31962    33.72407    11.05083
   165  H   1.0    0.06    1.05    1.44     9.10131    28.57288    10.18982
   166  H   1.0    0.07    1.02    1.43     7.18119    31.79546    13.49311
   167  H   1.0    0.06    1.04    1.43     5.14346    32.72481    10.99711
   168  H   1.0    0.06    1.03    1.43     3.73374    28.24671    10.49888
   169  H   1.0    0.06    1.03    1.43     5.73248    27.34925    12.98410
   170  N   5.0   -0.14    3.52    2.10     6.42453    32.52178     6.10435
   171  C   4.0    0.04    4.44    4.45     5.27002    32.59561     3.68957
   172  C   4.0    0.16    3.48    3.11     6.95975    31.28407     1.73581
   173  O   6.0   -0.32    1.26    1.80     6.06152    29.87039     0.11482
   174  C   4.0   -0.05    4.35    4.30     4.86021    35.37007     2.85807
   175  C   4.0   -0.02    4.20    4.00     2.72108    36.63658     4.38049
   176  C   4.0   -0.08    4.18    3.96     2.56288    39.35721     3.58762
   177  C   4.0   -0.08    4.15    3.91     0.11585    35.60461     3.80455
   178  H   1.0    0.11    1.09    1.44     6.82542    34.15568     7.01845
   179  H   1.0    0.05    1.05    1.44     3.47897    31.55286     3.71230
   180  H   1.0    0.05    1.03    1.43     6.63021    36.38082     3.14345
   181  H   1.0    0.04    1.03    1.43     4.37585    35.37549     0.85554
   182  H   1.0    0.06    1.06    1.44     3.09418    36.46927     6.39266
   183  H   1.0    0.04    1.00    1.43     1.11346    40.34007     4.66551
   184  H   1.0    0.04    1.00    1.43     4.34249    40.34597     3.91537
   185  H   1.0    0.03    1.00    1.43     2.10820    39.50808     1.58875
   186  H   1.0    0.04    1.01    1.43    -1.26720    36.62870     4.92743
   187  H   1.0    0.03    1.00    1.43    -0.35588    35.82779     1.82057
   188  H   1.0    0.04    1.00    1.43    -0.08076    33.61113     4.28097
   189  N   5.0   -0.14    3.50    2.08     9.40011    31.84216     1.78350
   190  C   4.0    0.03    4.44    4.45    11.10708    30.75534    -0.11416
   191  C   4.0    0.16    3.49    3.11    11.30735    27.93082     0.18699
   192  O   6.0   -0.28    1.24    1.80    11.24680    26.35054    -1.59760
   193  C   4.0   -0.03    4.39    4.37    13.72494    31.85766     0.15139
   194  C   4.0    0.16    3.25    3.04    15.60892    31.10892    -1.84831
   195  O   6.0   -0.31    1.28    1.80    17.61420    30.06141    -1.29887
   196  N   5.0   -0.18    3.25    1.97    14.83772    31.57269    -4.09288
   197  H   1.0    0.11    1.09    1.44    10.11366    33.08325     3.06118
   198  H   1.0    0.05    1.06    1.44    10.26695    31.10058    -1.97983
   199  H   1.0    0.05    1.03    1.43    13.54953    33.92176     0.14511
   200  H   1.0    0.06    1.03    1.43    14.48129    31.32009     1.99872
   201  H   1.0    0.10    1.03    1.43    15.72888    30.84485    -5.63871
   202  H   1.0    0.07    1.05    1.44    13.18127    32.48083    -4.34734
   203  N   5.0   -0.13    3.47    2.06    11.40474    27.05645     2.56604
   204  C   4.0    0.04    4.41    4.40    11.48052    24.32917     2.98739
   205  C   4.0    0.16    3.47    3.10     9.09641    22.99005     2.10260
   206  O   6.0   -0.27    1.23    1.80     9.09548    20.85062     1.20061
   207  C   4.0   -0.03    4.28    4.16    11.75557    23.43208     5.76358
   208  C   4.0   -0.02    4.16    3.93    14.30572    24.06924     6.91371
   209  C   4.0    0.24    3.09    3.02    14.46850    23.44579     9.78470
   210  O   6.0   -0.30    1.20    1.80    12.46917    22.77517    10.89169
   211  O   6.0   -0.30    1.17    1.80    16.61443    23.71195    10.72771
   212  H   1.0    0.11    1.09    1.44    11.60053    28.19905     4.10099
   213  H   1.0    0.06    1.05    1.44    13.04028    23.53788     1.86403
   214  H   1.0    0.07    1.03    1.43    10.26128    24.31554     6.88161
   215  H   1.0    0.06    1.04    1.43    11.49741    21.38837     5.74943
   216  H   1.0    0.05    1.02    1.43    15.81362    23.05546     5.94059
   217  H   1.0    0.07    1.03    1.43    14.68014    26.09179     6.73295
   218  N   5.0   -0.13    3.50    2.08     6.90717    24.20814     2.52274
   219  C   4.0    0.04    4.29    4.18     4.45489    23.19411     1.76678
   220  C   4.0    0.16    3.38    3.07     4.37174    22.89405    -1.14120
   221  O   6.0   -0.27    1.21    1.80     3.49901    20.95859    -2.10492
   222  C   4.0   -0.07    4.07    3.75     2.37794    24.82757     2.95915
   223  H   1.0    0.11    1.09    1.44     6.88042    25.87737     3.47082
   224  H   1.0    0.07    1.05    1.44     4.31757    21.24471     2.46943
   225  H   1.0    0.05    1.00    1.43     0.56752    23.88542     2.76172
   226  H   1.0    0.06    1.00    1.43     2.82122    25.08559     4.94499
   227  H   1.0    0.06    1.00    1.43     2.32790    26.66594     2.04753
   228  N   5.0   -0.13    3.45    2.05     5.34865    24.84549    -2.55174
   229  C   4.0    0.04    4.36    4.31     5.43081    24.72571    -5.26928
   230  C   4.0    0.10    3.27    3.05     7.02728    22.63548    -6.21061
   231  O   6.0   -0.27    1.12    1.80     6.39774    21.28022    -7.99290
   232  C   4.0   -0.04    4.43    4.43     6.10903    27.20988    -6.39936
   233  C   4.0   -0.02    4.18    3.95     4.13299    29.33603    -5.88205
   234  C   4.0   -0.08    4.15    3.91     5.53569    31.66303    -6.74285
   235  C   4.0   -0.08    4.09    3.78     1.73611    28.84903    -7.44557
   236  H   1.0    0.11    1.08    1.44     5.97914    26.40334    -1.63509
   237  H   1.0    0.06    1.07    1.44     3.52252    24.20650    -5.93894
   238  H   1.0    0.05    1.03    1.43     7.95128    27.76496    -5.64792
   239  H   1.0    0.04    1.04    1.43     6.27407    26.94493    -8.43589
   240  H   1.0    0.05    1.05    1.44     3.69121    29.42497    -3.87491
   241  H   1.0    0.03    1.00    1.43     4.37786    33.35132    -6.55070
   242  H   1.0    0.04    1.00    1.43     7.24236    31.91757    -5.63577
   243  H   1.0    0.04    1.01    1.43     6.04882    31.46784    -8.72276
   244  H   1.0    0.04    1.00    1.43     0.47377    30.46857    -7.37142
   245  H   1.0    0.04    1.00    1.43     2.22062    28.51764    -9.41599
   246  H   1.0    0.04    1.00    1.43     0.72370    27.19908    -6.77169
   247  O   6.0   -0.30    1.93    1.82    19.23461    28.79774     3.37095
   248  H   1.0    0.16    1.03    1.43    18.86932    29.36796     1.66175
   249  H   1.0    0.14    0.97    1.43    19.40137    27.00371     3.20216
   250  O   6.0   -0.30    1.92    1.82     5.96757    41.62099    20.01168
   251  H   1.0    0.15    1.01    1.43     7.51014    42.48069    19.53495
   252  H   1.0    0.13    0.97    1.43     6.08280    41.32097    21.79421
   253  O   6.0   -0.31    1.97    1.82    11.71838    27.05598    14.46334
   254  H   1.0    0.13    0.97    1.43    11.01352    26.12082    15.85361
   255  H   1.0    0.15    1.00    1.43    12.06671    25.78381    13.19647
   256  O   6.0   -0.32    1.93    1.82    -2.16832    50.18832    10.55336
   257  H   1.0    0.12    0.97    1.43    -2.02413    51.18315    12.06706
   258  H   1.0    0.15    1.01    1.43    -3.91252    49.64458    10.38085
   259  O   6.0   -0.31    1.94    1.82     2.16832    35.79421    10.55336
   260  H   1.0    0.14    0.97    1.43     2.02413    34.79938    12.06706
   261  H   1.0    0.15    1.01    1.43     3.91252    36.33795    10.38085
   262  O   6.0   -0.30    1.92    1.82    24.28226    29.69927    22.84633
   263  H   1.0    0.13    0.97    1.43    24.47342    31.38410    23.49352
   264  H   1.0    0.13    0.97    1.43    23.23125    28.79972    24.03282
   265  N   5.0   -0.20    3.22    1.96    30.97847    21.22336    10.90868
   266  C   4.0    0.03    4.23    4.05    29.75327    21.59071    13.34579
   267  C   4.0    0.08    3.21    3.04    30.71838    19.71486    15.28059
   268  O   6.0   -0.29    1.14    1.80    30.56766    17.46029    14.83917
   269  C   4.0   -0.04    4.26    4.12    26.89644    21.14732    12.91131
   270  C   4.0   -0.05    4.15    3.90    25.30054    22.61761    14.85910
   271  C   4.0   -0.01    4.17    3.95    22.40313    22.17915    14.53835
   272  N   5.0   -0.14    3.40    2.02    21.07951    23.52397    16.55085
   273  C   4.0    0.10    3.34    3.06    18.62569    23.26151    17.09031
   274  N   5.0   -0.17    3.24    1.97    17.27426    21.48591    15.89883
   275  N   5.0   -0.18    3.23    1.96    17.70104    24.56588    19.04365
   276  H   1.0    0.09    1.03    1.43    30.35684    19.70520     9.93155
   277  H   1.0    0.03    1.05    1.44    30.11966    23.53812    13.92906
   278  H   1.0    0.04    1.03    1.43    26.38825    21.77154    11.01559
   279  H   1.0    0.06    1.03    1.43    26.51558    19.12694    13.03600
   280  H   1.0    0.05    1.03    1.43    25.82917    21.97898    16.74504
   281  H   1.0    0.04    1.03    1.43    25.70772    24.62176    14.65220
   282  H   1.0    0.06    1.02    1.43    21.78921    22.83531    12.67655
   283  H   1.0    0.05    1.02    1.43    21.99144    20.16525    14.67786
   284  H   1.0    0.08    1.07    1.44    22.05179    24.94548    17.37788
   285  H   1.0    0.10    1.04    1.43    17.76344    20.99024    14.12050
   286  H   1.0    0.10    1.03    1.43    15.38914    21.37750    16.24208
   287  H   1.0    0.09    1.03    1.43    18.76908    25.83211    19.97808
   288  H   1.0    0.09    1.03    1.43    15.85757    24.39877    19.48151
   289  N   5.0   -0.20    3.20    1.96    26.87106    41.18446     3.59523
   290  C   4.0    0.03    4.26    4.12    25.44699    38.95135     2.79129
   291  C   4.0    0.08    3.27    3.05    25.99985    38.21770     0.14642
   292  O   6.0   -0.29    1.15    1.80    25.87528    39.71921    -1.56432
   293  C   4.0   -0.05    4.41    4.39    22.58313    39.52081     2.94021
   294  C   4.0   -0.02    4.20    4.01    20.95843    37.24086     2.46642
   295  C   4.0   -0.07    4.17    3.93    21.49530    35.25235     4.43398
   296  C   4.0   -0.07    4.11    3.83    18.13410    37.98242     2.79307
   297  H   1.0    0.09    1.02    1.43    26.61793    42.78063     2.56852
   298  H   1.0    0.03    1.06    1.44    25.95978    37.45044     4.11160
   299  H   1.0    0.03    1.03    1.43    22.18174    40.27552     4.81692
   300  H   1.0    0.05    1.03    1.43    22.18174    41.00386     1.55777
   301  H   1.0    0.05    1.05    1.44    21.25846    36.49346     0.56485
   302  H   1.0    0.05    1.00    1.43    20.23183    33.64864     4.17517
   303  H   1.0    0.04    1.00    1.43    23.40493    34.50721     4.31589
   304  H   1.0    0.04    1.00    1.43    21.18962    36.02405     6.31334
   305  H   1.0    0.05    1.00    1.43    16.92400    36.35291     2.51006
   306  H   1.0    0.04    1.00    1.43    17.84179    38.71448     4.68797
   307  H   1.0    0.04    1.00    1.43    17.60525    39.43465     1.43683
   308  N   5.0   -0.22    3.20    1.96     9.94744    45.54966    -9.28255
   309  C   4.0    0.03    4.23    4.05    10.72294    46.07495    -6.79643
   310  C   4.0    0.07    3.20    3.04    11.86036    48.74221    -6.53016
   311  O   6.0   -0.32    1.15    1.80    11.61882    50.00244    -4.59901
   312  C   4.0   -0.04    4.27    4.14    12.64690    44.14345    -5.70920
   313  C   4.0   -0.02    3.50    3.11    11.32175    41.71954    -4.85360
   314  C   4.0   -0.04    3.52    3.12     9.25152    41.75136    -3.20090
   315  C   4.0   -0.04    3.50    3.12    11.89916    39.38177    -5.75340
   316  C   4.0   -0.05    3.41    3.08     7.92410    39.62726    -2.56559
   317  C   4.0   -0.04    3.40    3.08    10.71884    37.14951    -4.92218
   318  C   4.0   -0.05    3.38    3.07     8.57867    37.31409    -3.47303
   319  H   1.0    0.08    1.02    1.43    10.80432    44.15391   -10.28825
   320  H   1.0    0.04    1.06    1.44     9.03876    46.10402    -5.57594
   321  H   1.0    0.04    1.03    1.43    14.04872    43.73521    -7.15692
   322  H   1.0    0.05    1.03    1.43    13.55701    45.02002    -4.08467
   323  H   1.0    0.04    1.03    1.43     8.68266    43.54402    -2.39219
   324  H   1.0    0.05    1.03    1.43    13.45735    39.19054    -7.06288
   325  H   1.0    0.04    1.03    1.43     6.28793    39.82984    -1.35715
   326  H   1.0    0.04    1.03    1.43    11.31425    35.38184    -5.72506
   327  H   1.0    0.05    1.03    1.43     7.51675    35.65679    -2.94549
   328  N   5.0   -0.20    3.26    1.97     6.42453    53.46075    -6.10435
   329  C   4.0    0.03    4.32    4.23     5.27002    53.38692    -3.68957
   330  C   4.0    0.15    3.43    3.09     6.95975    54.69846    -1.73581
   331  O   6.0   -0.32    1.26    1.80     6.06152    56.11214    -0.11482
   332  C   4.0   -0.05    4.35    4.30     4.86021    50.61246    -2.85807
   333  C   4.0   -0.03    4.20    4.00     2.72108    49.34595    -4.38049
   334  C   4.0   -0.08    4.18    3.96     2.56288    46.62532    -3.58762
   335  C   4.0   -0.08    4.15    3.91     0.11585    50.37792    -3.80455
   336  H   1.0    0.08    1.03    1.43     6.82542    51.82685    -7.01845
   337  H   1.0    0.04    1.05    1.44     3.47897    54.42967    -3.71230
   338  H   1.0    0.05    1.03    1.43     6.63021    49.60171    -3.14345
   339  H   1.0    0.04    1.03    1.43     4.37585    50.60704    -0.85554
   340  H   1.0    0.04    1.06    1.44     3.09418    49.51326    -6.39266
   341  H   1.0    0.03    1.00    1.43     1.11346    45.64246    -4.66551
   342  H   1.0    0.03    1.00    1.43     4.34249    45.63656    -3.91537
   343  H   1.0    0.03    1.00    1.43     2.10820    46.47445    -1.58875
   344  H   1.0    0.04    1.01    1.43    -1.26720    49.35383    -4.92743
   345  H   1.0    0.04    1.00    1.43    -0.35588    50.15474    -1.82057
   346  H   1.0    0.04    1.00    1.43    -0.08076    52.37140    -4.28097
   347  N   5.0   -0.15    3.47    2.06     9.40011    54.14037    -1.78350
   348  C   4.0    0.03    4.35    4.29    11.10708    55.22720     0.11416
   349  C   4.0    0.09    3.28    3.05    11.30735    58.05171    -0.18699
   350  O   6.0   -0.28    1.10    1.80    11.24680    59.63200     1.59760
   351  C   4.0   -0.03    4.38    4.35    13.72494    54.12487    -0.15139
   352  C   4.0    0.16    3.25    3.04    15.60892    54.87361     1.84831
   353  O   6.0   -0.28    1.20    1.80    17.61420    55.92112     1.29887
   354  N   5.0   -0.19    3.25    1.97    14.83772    54.40984     4.09288
   355  H   1.0    0.11    1.09    1.44    10.11366    52.89928    -3.06118
   356  H   1.0    0.05    1.05    1.44    10.26695    54.88195     1.97983
   357  H   1.0    0.05    1.03    1.43    13.54953    52.06077    -0.14511
   358  H   1.0    0.06    1.03    1.43    14.48129    54.66244    -1.99872
   359  H   1.0    0.09    1.03    1.43    15.72888    55.13768     5.63871
   360  H   1.0    0.07    1.05    1.44    13.18127    53.50170     4.34734
   361  N   5.0   -0.20    3.23    1.96     5.34865    61.13704     2.55174
   362  C   4.0    0.04    4.27    4.14     5.43081    61.25682     5.26928
   363  C   4.0    0.08    3.25    3.04     7.02728    63.34705     6.21061
   364  O   6.0   -0.29    1.12    1.80     6.39774    64.70231     7.99290
   365  C   4.0   -0.04    4.43    4.43     6.10903    58.77265     6.39936
   366  C   4.0   -0.02    4.18    3.95     4.13299    56.64650     5.88205
   367  C   4.0   -0.08    4.15    3.91     5.53569    54.31950     6.74285
   368  C   4.0   -0.08    4.09    3.78     1.73611    57.13350     7.44557
   369  H   1.0    0.12    1.04    1.43     5.97914    59.57919     1.63509
   370  H   1.0    0.05    1.07    1.44     3.52252    61.77603     5.93894
   371  H   1.0    0.06    1.03    1.43     7.95128    58.21757     5.64792
   372  H   1.0    0.05    1.04    1.43     6.27407    59.03760     8.43589
   373  H   1.0    0.05    1.05    1.44     3.69121    56.55756     3.87491
   374  H   1.0    0.04    1.00    1.43     4.37786    52.63121     6.55070
   375  H   1.0    0.04    1.00    1.43     7.24236    54.06497     5.63577
   376  H   1.0    0.04    1.01    1.43     6.04882    54.51469     8.72276
   377  H   1.0    0.04    1.00    1.43     0.47377    55.51396     7.37142
   378  H   1.0    0.04    1.00    1.43     2.22062    57.46489     9.41599
   379  H   1.0    0.04    1.00    1.43     0.72370    58.78345     6.77169
   380  N   5.0   -0.19    3.21    1.96    32.02813    30.06210    17.35437
   381  C   4.0    0.03    4.20    4.00    32.73959    29.62042    14.75987
   382  C   4.0    0.08    3.24    3.04    35.56771    30.20239    14.48529
   383  O   6.0   -0.28    1.12    1.80    36.63705    31.90105    15.67344
   384  H   1.0    0.09    1.03    1.43    32.09052    31.89874    17.90301
   385  H   1.0    0.04    1.05    1.44    32.44746    27.61876    14.34509
   386  C   4.0   -0.04    4.32    4.24    31.37262    31.36866    12.86084
   387  C   4.0   -0.02    3.52    3.12    29.11605    30.36371    11.49058
   388  C   4.0   -0.05    3.47    3.10    28.93825    28.01331    10.34328
   389  C   4.0   -0.05    3.53    3.13    27.08108    31.97205    11.19166
   390  C   4.0   -0.04    3.45    3.09    26.73105    27.20297     9.22932
   391  C   4.0   -0.05    3.44    3.09    24.87248    31.21797    10.00843
   392  C   4.0    0.07    3.43    3.09    24.61425    28.76514     9.13845
   393  O   6.0   -0.24    2.10    1.84    22.36859    27.80379     8.26862
   394  H   1.0    0.05    1.04    1.43    30.83995    33.08081    13.87635
   395  H   1.0    0.05    1.04    1.43    32.77794    31.91976    11.44553
   396  H   1.0    0.04    1.03    1.43    30.56259    26.78680    10.31437
   397  H   1.0    0.05    1.05    1.44    27.29047    33.84264    11.96249
   398  H   1.0    0.05    1.03    1.43    26.63864    25.39147     8.29887
   399  H   1.0    0.04    1.03    1.43    23.30849    32.50922     9.78494
   400  H   1.0    0.12    1.03    1.43    21.36649    29.08239     7.44552
   401  N   5.0   -0.21    3.21    1.96    -9.55538    45.99323    14.60403
   402  C   4.0    0.02    4.33    4.25    -7.27057    46.11469    12.95269
   403  C   4.0    0.14    3.48    3.10    -8.06928    46.92197    10.32286
   404  O   6.0   -0.33    1.31    1.80    -6.99116    48.59166     9.05143
   405  C   4.0   -0.04    4.39    4.36    -5.89736    43.61984    13.08243
   406  C   4.0   -0.04    4.13    3.87    -3.82980    43.58578    11.14630
   407  S   6.0   -0.04    2.60    3.10    -2.60825    40.48210    10.76450
   408  C   4.0   -0.07    3.88    3.43    -5.00489    39.00369     8.77059
   409  H   1.0    0.08    1.02    1.43    -9.77149    44.39431    15.63928
   410  H   1.0    0.04    1.05    1.44    -6.05319    47.62986    13.69478
   411  H   1.0    0.04    1.03    1.43    -5.15605    43.35717    14.98714
   412  H   1.0    0.04    1.05    1.44    -7.26718    42.11925    12.68942
   413  H   1.0    0.05    1.09    1.44    -4.50636    44.22961     9.30527
   414  H   1.0    0.05    1.11    1.44    -2.25844    44.79969    11.69572
   415  H   1.0    0.04    1.05    1.44    -4.42994    37.04904     8.60954
   416  H   1.0    0.04    1.03    1.43    -6.85640    39.16045     9.63967
   417  H   1.0    0.04    1.04    1.43    -5.00528    39.91483     6.93271
   418  N   5.0   -0.15    3.46    2.06    -9.94744    45.54966     9.28255
   419  C   4.0    0.04    4.36    4.31   -10.72294    46.07495     6.79643
   420  C   4.0    0.08    3.24    3.04   -11.86036    48.74221     6.53016
   421  O   6.0   -0.29    1.11    1.80   -11.61882    50.00244     4.59901
   422  C   4.0   -0.04    4.27    4.14   -12.64690    44.14345     5.70920
   423  C   4.0   -0.02    3.50    3.11   -11.32175    41.71954     4.85360
   424  C   4.0   -0.04    3.52    3.12    -9.25152    41.75136     3.20090
   425  C   4.0   -0.04    3.50    3.12   -11.89916    39.38177     5.75340
   426  C   4.0   -0.05    3.41    3.08    -7.92410    39.62726     2.56559
   427  C   4.0   -0.05    3.40    3.08   -10.71884    37.14951     4.92218
   428  C   4.0   -0.05    3.38    3.07    -8.57867    37.31409     3.47303
   429  H   1.0    0.07    1.06    1.44   -10.80432    44.15391    10.28825
   430  H   1.0    0.05    1.06    1.44    -9.03876    46.10402     5.57594
   431  H   1.0    0.04    1.03    1.43   -14.04872    43.73521     7.15692
   432  H   1.0    0.05    1.03    1.43   -13.55701    45.02002     4.08467
   433  H   1.0    0.04    1.03    1.43    -8.68266    43.54402     2.39219
   434  H   1.0    0.04    1.03    1.43   -13.45735    39.19054     7.06288
   435  H   1.0    0.04    1.03    1.43    -6.28793    39.82984     1.35715
   436  H   1.0    0.05    1.03    1.43   -11.31425    35.38184     5.72506
   437  H   1.0    0.05    1.03    1.43    -7.51675    35.65679     2.94549
   438  N   5.0   -0.20    3.24    1.96    -6.42453    53.46075     6.10435
   439  C   4.0    0.04    4.23    4.05    -5.27002    53.38692     3.68957
   440  C   4.0    0.08    3.21    3.04    -6.95975    54.69846     1.73581
   441  O   6.0   -0.29    1.11    1.80    -6.06152    56.11214     0.11482
   442  C   4.0   -0.04    4.35    4.28    -4.86021    50.61246     2.85807
   443  C   4.0   -0.02    4.20    4.00    -2.72108    49.34595     4.38049
   444  C   4.0   -0.08    4.18    3.96    -2.56288    46.62532     3.58762
   445  C   4.0   -0.08    4.15    3.91    -0.11585    50.37792     3.80455
   446  H   1.0    0.11    1.05    1.44    -6.82542    51.82685     7.01845
   447  H   1.0    0.04    1.05    1.44    -3.47897    54.42967     3.71230
   448  H   1.0    0.06    1.03    1.43    -6.63021    49.60171     3.14345
   449  H   1.0    0.04    1.03    1.43    -4.37585    50.60704     0.85554
   450  H   1.0    0.06    1.06    1.44    -3.09418    49.51326     6.39266
   451  H   1.0    0.04    1.00    1.43    -1.11346    45.64246     4.66551
   452  H   1.0    0.04    1.00    1.43    -4.34249    45.63656     3.91537
   453  H   1.0    0.03    1.00    1.43    -2.10820    46.47445     1.58875
   454  H   1.0    0.04    1.01    1.43     1.26720    49.35383     4.92743
   455  H   1.0    0.03    1.00    1.43     0.35588    50.15474     1.82057
   456  H   1.0    0.04    1.00    1.43     0.08076    52.37140     4.28097
   457  N   5.0   -0.22    3.23    1.96    -6.42453    32.52178    -6.10435
   458  C   4.0    0.03    4.23    4.05    -5.27002    32.59561    -3.68957
   459  C   4.0    0.07    3.21    3.04    -6.95975    31.28407    -1.73581
   460  O   6.0   -0.32    1.14    1.80    -6.06152    29.87039    -0.11482
   461  C   4.0   -0.05    4.35    4.28    -4.86021    35.37007    -2.85807
   462  C   4.0   -0.03    4.20    4.00    -2.72108    36.63658    -4.38049
   463  C   4.0   -0.08    4.18    3.96    -2.56288    39.35721    -3.58762
   464  C   4.0   -0.08    4.15    3.91    -0.11585    35.60461    -3.80455
   465  H   1.0    0.08    1.03    1.43    -6.82542    34.15568    -7.01845
   466  H   1.0    0.04    1.05    1.44    -3.47897    31.55286    -3.71230
   467  H   1.0    0.04    1.03    1.43    -6.63021    36.38082    -3.14345
   468  H   1.0    0.04    1.03    1.43    -4.37585    35.37549    -0.85554
   469  H   1.0    0.03    1.06    1.44    -3.09418    36.46927    -6.39266
   470  H   1.0    0.03    1.00    1.43    -1.11346    40.34007    -4.66551
   471  H   1.0    0.03    1.00    1.43    -4.34249    40.34597    -3.91537
   472  H   1.0    0.03    1.00    1.43    -2.10820    39.50808    -1.58875
   473  H   1.0    0.03    1.01    1.43     1.26720    36.62870    -4.92743
   474  H   1.0    0.03    1.00    1.43     0.35588    35.82779    -1.82057
   475  H   1.0    0.04    1.00    1.43     0.08076    33.61113    -4.28097
   476  N   5.0   -0.21    3.23    1.96    -5.34865    24.84549     2.55174
   477  C   4.0    0.03    4.27    4.14    -5.43081    24.72571     5.26928
   478  C   4.0    0.08    3.25    3.04    -7.02728    22.63548     6.21061
   479  O   6.0   -0.28    1.12    1.80    -6.39774    21.28022     7.99290
   480  C   4.0   -0.04    4.43    4.43    -6.10903    27.20988     6.39936
   481  C   4.0   -0.02    4.18    3.95    -4.13299    29.33603     5.88205
   482  C   4.0   -0.07    4.15    3.91    -5.53569    31.66303     6.74285
   483  C   4.0   -0.07    4.09    3.78    -1.73611    28.84903     7.44557
   484  H   1.0    0.11    1.04    1.43    -5.97914    26.40334     1.63509
   485  H   1.0    0.05    1.07    1.44    -3.52252    24.20650     5.93894
   486  H   1.0    0.04    1.03    1.43    -7.95128    27.76496     5.64792
   487  H   1.0    0.05    1.04    1.43    -6.27407    26.94493     8.43589
   488  H   1.0    0.05    1.05    1.44    -3.69121    29.42497     3.87491
   489  H   1.0    0.04    1.00    1.43    -4.37786    33.35132     6.55070
   490  H   1.0    0.04    1.00    1.43    -7.24236    31.91757     5.63577
   491  H   1.0    0.04    1.01    1.43    -6.04882    31.46784     8.72276
   492  H   1.0    0.05    1.00    1.43    -0.47377    30.46857     7.37142
   493  H   1.0    0.06    1.00    1.43    -2.22062    28.51764     9.41599
   494  H   1.0    0.04    1.00    1.43    -0.72370    27.19908     6.77169
   495  H   1.0    0.09    1.07    1.44    24.08051    50.95382     4.75808
   496  H   1.0    0.05    1.04    1.43    21.62073    54.53827    10.78876
   497  H   1.0    0.10    1.07    1.44    15.17478    46.14962    22.84937
   498  H   1.0    0.08    1.05    1.44     8.69267    22.27643    -5.39290
   499  H   1.0    0.09    1.07    1.44    30.71059    22.58640     9.92739
   500  H   1.0    0.05    1.04    1.44    31.47007    20.33123    16.90112
   501  H   1.0    0.09    1.07    1.44    26.44050    41.58851     5.19020
   502  H   1.0    0.05    1.05    1.44    26.49114    36.43822    -0.25751
   503  H   1.0    0.09    1.08    1.44     8.30637    45.10307    -9.28297
   504  H   1.0    0.05    1.05    1.44    12.83404    49.50133    -7.96080
   505  H   1.0    0.09    1.08    1.44     5.42129    54.30480    -7.18771
   506  H   1.0    0.06    1.05    1.44    11.50585    58.80673    -1.90793
   507  H   1.0    0.10    1.08    1.44     3.73927    61.29482     2.02491
   508  H   1.0    0.07    1.05    1.44     8.69267    63.70610     5.39290
   509  H   1.0    0.09    1.07    1.44    30.43212    29.53006    17.60384
   510  H   1.0    0.05    1.05    1.44    36.63131    29.18398    13.30095
   511  H   1.0    0.09    1.06    1.44    -9.51518    47.27268    15.72384
   512  H   1.0    0.06    1.05    1.44   -12.83404    49.50133     7.96080
   513  H   1.0    0.09    1.08    1.44    -5.42129    54.30480     7.18771
   514  H   1.0    0.07    1.04    1.44    -8.82791    54.41482     1.76008
   515  H   1.0    0.09    1.08    1.44    -5.42129    31.67773    -7.18771
   516  H   1.0    0.05    1.04    1.44    -8.82791    31.56772    -1.76008
   517  H   1.0    0.10    1.08    1.44    -3.73927    24.68771     2.02491
   518  H   1.0    0.06    1.05    1.44    -8.69267    22.27643     5.39290

  Z AO/shell   Hii/eV     exponent
  1     Wed Apr 25 08:07:45 CEST 2018   EN: 2.200 GM2: 0.406  GM3: 0.0800  RAES: 1.40
     1s    -10.707211    1.230000
  6     Wed Apr 25 08:07:45 CEST 2018   EN: 2.550 GM2: 0.538  GM3: 0.1500  RAES: 3.00
     2s    -13.970922    2.096432
     2p    -10.063292    1.800000
  7     Wed Apr 25 08:07:45 CEST 2018   EN: 3.040 GM2: 0.461  GM3:-0.0640  RAES: 1.90
     2s    -16.686243    2.339881
     2p    -12.523956    2.014332
  8     Wed Apr 25 08:07:45 CEST 2018   EN: 3.440 GM2: 0.452  GM3:-0.0517  RAES: 1.80
     2s    -20.229985    2.439742
     2p    -15.503117    2.137023
 16     Tue Apr 24 11:44:34 CEST 2018   EN: 2.580 GM2: 0.340  GM3:-0.0502  RAES: 3.10
     3s    -20.029654    1.981333
     3p    -11.377694    2.025643
     3d     -0.420282    1.702555
 no old-style atom pair restraining (fixing) potential

molecular fragmentation (1/2 indicates fragments):
111111111111111111122222222222222222222222222222222222222222222222222222
222222222222222222222222222222222222222222222222222222222222222222222222
222222222222222222222222222222222222222222222222222222222222222222222222
222222222222222222222222222222222222222222222222222222222222222222222222
222222222222222222222222222222222222222222222222222222222222222222222222
222222222222222222222222222222222222222222222222222222222222222222222222
222222222222222222222222222222222222222222222222222222222222221122222222
22222222222222
# atoms in fragment 1/2:    21   497
 fragment masses (1/2) :      115.17     3333.10
CMA distance (Bohr)    :  16.916
constraining FC (au)   :  0.0500
           ------------------------------------------------- 
          |        Self-Consistent Charge Iterations        |
           ------------------------------------------------- 

 Ncao       : 1250
 Nao        : 1248
 Nshell     : 760
 Nel        : 1366
 T(el)      :   500.0
 intcut     :    35.0
 scfconv/Eh :  0.100E-06
   qconv/e  :  0.100E-04
 intneglect :  0.100E-08
 broydamp   :      0.400
 iter      E             dE          RMSdq      gap      omega  full diag
   1   -777.7595906 -0.777760E+03  0.461E+00    2.73       0.0  T
   2   -779.5371444 -0.177755E+01  0.219E+00    1.19       1.0  T
   3   -779.6514443 -0.114300E+00  0.124E+00    1.69       1.0  T
   4   -779.7978971 -0.146453E+00  0.266E-01    1.22       1.0  T
   5   -779.8045580 -0.666090E-02  0.134E-01    1.46       1.0  T
   6   -779.8062432 -0.168515E-02  0.615E-02    1.42       1.0  T
   7   -779.8066489 -0.405708E-03  0.322E-02    1.46       1.0  T
   8   -779.8067321 -0.831853E-04  0.167E-02    1.47       1.0  T
   9   -779.8067625 -0.304332E-04  0.891E-03    1.48       1.0  T
  10   -779.8067690 -0.654284E-05  0.439E-03    1.48       1.0  T
  11   -779.8067710 -0.201104E-05  0.203E-03    1.48       2.2  T
  12   -779.8067714 -0.377304E-06  0.859E-04    1.48       5.1  T
  13   -779.8067715 -0.698999E-07  0.425E-04    1.48      10.3  T
  14   -779.8067715 -0.117767E-07  0.173E-04    1.48      25.3  T
  15   -779.8067715 -0.399552E-08  0.796E-05    1.48      55.2  T
  16   -779.8067715 -0.529212E-09  0.395E-05    1.48     111.3  T
speedup 10.18
cpu  time for SCC   37.30 s
wall time for SCC    3.66 s

   *** convergence criteria satisfied after 16 iterations ***

          eigenvalues
 #    :         671        672        673        674        675        676        677        678
 occ. :        2.000      2.000      2.000      2.000      2.000      2.000      2.000      2.000
 eps  :        -9.965     -9.936     -9.910     -9.897     -9.889     -9.873     -9.871     -9.836
 #    :         679        680        681        682        683        684        685        686
 occ. :        2.000      2.000      2.000      2.000      2.000      0.000      0.000      0.000
 eps  :        -9.779     -9.547     -9.491     -9.434     -9.431     -7.950     -7.861     -7.829
 #    :         687        688        689        690        691        692        693        694
 occ. :        0.000      0.000      0.000      0.000      0.000      0.000      0.000      0.000
 eps  :        -7.792     -7.730     -7.697     -7.684     -7.639     -7.623     -7.481     -7.411


   #   Z            q   n(s)   n(p)   n(d)      C6AA      α(0)
   1   7 N     -0.389  1.331  4.058  0.000    30.067     8.144
   2   6 C      0.033  1.060  2.907  0.000    20.037     6.375
   3   6 C      0.198  1.092  2.710  0.000    23.776     7.986
   4   8 O     -0.380  1.772  4.608  0.000    21.290     6.186
   5   6 C     -0.027  1.068  2.959  0.000    21.028     6.522
   6   6 C     -0.069  1.056  3.013  0.000    21.820     6.650
   7   6 C     -0.135  1.048  3.088  0.000    23.161     6.862
   8   6 C     -0.109  1.039  3.070  0.000    22.655     6.788
   9   1 H      0.157  0.843  0.000  0.000     1.354     1.823
  10   1 H      0.065  0.935  0.000  0.000     2.145     2.290
  11   1 H      0.041  0.959  0.000  0.000     2.429     2.437
  12   1 H      0.055  0.945  0.000  0.000     2.256     2.349
  13   1 H      0.033  0.967  0.000  0.000     2.550     2.497
  14   1 H      0.052  0.948  0.000  0.000     2.294     2.369
  15   1 H      0.041  0.959  0.000  0.000     2.434     2.440
  16   1 H      0.067  0.933  0.000  0.000     2.124     2.279
  17   1 H      0.042  0.958  0.000  0.000     2.419     2.432
  18   1 H      0.032  0.968  0.000  0.000     2.563     2.503
  19   1 H      0.036  0.964  0.000  0.000     2.509     2.477
  20   7 N     -0.375  1.302  4.073  0.000    29.684     8.092
  21   6 C      0.042  1.050  2.908  0.000    19.876     6.350
  22   6 C      0.261  1.059  2.680  0.000    22.600     7.786
  23   8 O     -0.512  1.751  4.761  0.000    24.041     6.574
  24   6 C     -0.054  1.051  3.003  0.000    21.548     6.608
  25   6 C     -0.091  1.064  3.027  0.000    22.237     6.714
  26   6 C      0.366  1.029  2.605  0.000    20.800     7.463
  27   8 O     -0.665  1.786  4.879  0.000    27.768     7.065
  28   8 O     -0.660  1.778  4.882  0.000    27.639     7.049
  29   1 H      0.165  0.835  0.000  0.000     1.304     1.789
  30   1 H      0.013  0.987  0.000  0.000     2.844     2.637
  31   1 H      0.061  0.939  0.000  0.000     2.186     2.312
  32   1 H      0.025  0.975  0.000  0.000     2.653     2.547
  33   1 H      0.029  0.971  0.000  0.000     2.596     2.519
  34   1 H      0.028  0.972  0.000  0.000     2.613     2.528
  35   7 N     -0.170  1.255  3.915  0.000    24.683     7.379
  36   6 C      0.005  1.065  2.930  0.000    20.491     6.446
  37   6 C      0.267  1.046  2.687  0.000    22.497     7.767
  38   8 O     -0.479  1.751  4.728  0.000    23.328     6.476
  39   6 C     -0.105  1.067  3.038  0.000    22.505     6.754
  40   6 C     -0.096  1.063  3.033  0.000    22.340     6.730
  41   6 C     -0.047  1.072  2.975  0.000    21.510     6.619
  42   7 N     -0.146  1.217  3.929  0.000    24.151     7.299
  43   6 C      0.232  1.013  2.755  0.000    23.129     7.874
  44   7 N     -0.246  1.229  4.017  0.000    26.400     7.631
  45   7 N     -0.248  1.227  4.022  0.000    26.466     7.641
  46   1 H      0.238  0.762  0.000  0.000     0.931     1.511
  47   1 H      0.091  0.909  0.000  0.000     1.874     2.141
  48   1 H      0.094  0.906  0.000  0.000     1.838     2.120
  49   1 H      0.088  0.912  0.000  0.000     1.901     2.156
  50   1 H      0.087  0.913  0.000  0.000     1.905     2.159
  51   1 H      0.086  0.914  0.000  0.000     1.916     2.165
  52   1 H      0.109  0.891  0.000  0.000     1.705     2.042
  53   1 H      0.099  0.901  0.000  0.000     1.796     2.096
  54   1 H      0.227  0.773  0.000  0.000     0.980     1.551
  55   1 H      0.252  0.748  0.000  0.000     0.877     1.467
  56   1 H      0.246  0.754  0.000  0.000     0.900     1.486
  57   1 H      0.239  0.761  0.000  0.000     0.927     1.508
  58   1 H      0.246  0.754  0.000  0.000     0.899     1.486
  59   7 N     -0.164  1.238  3.926  0.000    24.543     7.358
  60   6 C      0.022  1.053  2.925  0.000    20.208     6.400
  61   6 C      0.276  1.050  2.674  0.000    22.328     7.738
  62   8 O     -0.482  1.746  4.736  0.000    23.394     6.485
  63   6 C     -0.086  1.066  3.020  0.000    22.129     6.697
  64   6 C      0.003  1.083  2.914  0.000    27.961     8.673
  65   6 C     -0.039  1.080  2.960  0.000    28.980     8.830
  66   6 C     -0.038  1.085  2.953  0.000    28.938     8.822
  67   6 C     -0.037  1.079  2.958  0.000    28.909     8.816
  68   6 C     -0.036  1.086  2.950  0.000    28.895     8.815
  69   6 C     -0.050  1.084  2.965  0.000    29.232     8.867
  70   1 H      0.225  0.775  0.000  0.000     0.988     1.557
  71   1 H      0.098  0.902  0.000  0.000     1.808     2.103
  72   1 H      0.093  0.907  0.000  0.000     1.848     2.126
  73   1 H      0.055  0.945  0.000  0.000     2.254     2.348
  74   1 H      0.041  0.959  0.000  0.000     2.429     2.437
  75   1 H      0.019  0.981  0.000  0.000     2.755     2.596
  76   1 H      0.053  0.947  0.000  0.000     2.277     2.360
  77   1 H      0.036  0.964  0.000  0.000     2.497     2.471
  78   1 H      0.064  0.936  0.000  0.000     2.149     2.293
  79   7 N     -0.187  1.258  3.929  0.000    25.056     7.434
  80   6 C      0.030  1.070  2.901  0.000    20.092     6.385
  81   6 C      0.276  1.047  2.677  0.000    22.338     7.739
  82   8 O     -0.514  1.747  4.767  0.000    24.102     6.582
  83   1 H      0.195  0.805  0.000  0.000     1.131     1.666
  84   1 H      0.069  0.931  0.000  0.000     2.093     2.262
  85   6 C     -0.051  1.049  3.001  0.000    21.472     6.596
  86   6 C     -0.088  1.058  3.030  0.000    22.181     6.705
  87   6 C      0.363  1.024  2.614  0.000    20.848     7.473
  88   8 O     -0.583  1.753  4.830  0.000    25.714     6.799
  89   8 O     -0.621  1.776  4.846  0.000    26.641     6.920
  90   1 H      0.042  0.958  0.000  0.000     2.424     2.435
  91   1 H      0.036  0.964  0.000  0.000     2.507     2.476
  92   1 H      0.031  0.969  0.000  0.000     2.566     2.505
  93   1 H      0.026  0.974  0.000  0.000     2.641     2.541
  94   7 N     -0.180  1.257  3.923  0.000    24.895     7.410
  95   6 C      0.031  1.064  2.905  0.000    20.048     6.375
  96   6 C      0.271  1.047  2.682  0.000    22.419     7.754
  97   8 O     -0.512  1.755  4.757  0.000    24.048     6.575
  98   6 C     -0.070  1.049  3.020  0.000    21.786     6.637
  99   6 C     -0.002  1.049  2.953  0.000    20.618     6.464
 100  16 S     -0.202  1.910  4.237  0.055   149.665    20.590
 101   6 C     -0.077  1.059  3.018  0.000    22.044     6.698
 102   1 H      0.230  0.770  0.000  0.000     0.963     1.537
 103   1 H      0.049  0.951  0.000  0.000     2.332     2.388
 104   1 H      0.067  0.933  0.000  0.000     2.119     2.277
 105   1 H      0.081  0.919  0.000  0.000     1.967     2.193
 106   1 H      0.038  0.962  0.000  0.000     2.474     2.460
 107   1 H      0.044  0.956  0.000  0.000     2.399     2.422
 108   1 H      0.101  0.899  0.000  0.000     1.775     2.084
 109   1 H      0.071  0.929  0.000  0.000     2.077     2.254
 110   1 H      0.059  0.941  0.000  0.000     2.216     2.328
 111   7 N     -0.160  1.239  3.921  0.000    24.466     7.346
 112   6 C      0.026  1.054  2.920  0.000    20.137     6.388
 113   6 C      0.273  1.042  2.685  0.000    22.381     7.747
 114   8 O     -0.503  1.738  4.765  0.000    23.851     6.548
 115   6 C     -0.080  1.059  3.021  0.000    22.032     6.682
 116   6 C      0.009  1.080  2.911  0.000    27.810     8.650
 117   6 C     -0.039  1.080  2.960  0.000    28.974     8.829
 118   6 C     -0.039  1.082  2.957  0.000    28.971     8.828
 119   6 C     -0.029  1.072  2.957  0.000    28.733     8.791
 120   6 C     -0.047  1.083  2.964  0.000    29.162     8.856
 121   6 C     -0.034  1.076  2.957  0.000    28.837     8.806
 122   1 H      0.239  0.761  0.000  0.000     0.929     1.510
 123   1 H      0.075  0.925  0.000  0.000     2.030     2.228
 124   1 H      0.070  0.930  0.000  0.000     2.089     2.260
 125   1 H      0.074  0.926  0.000  0.000     2.038     2.233
 126   1 H      0.021  0.979  0.000  0.000     2.712     2.575
 127   1 H      0.052  0.948  0.000  0.000     2.293     2.368
 128   1 H      0.040  0.960  0.000  0.000     2.447     2.446
 129   1 H      0.065  0.935  0.000  0.000     2.141     2.288
 130   1 H      0.054  0.946  0.000  0.000     2.268     2.355
 131   7 N     -0.190  1.258  3.932  0.000    25.118     7.443
 132   6 C      0.024  1.072  2.905  0.000    20.182     6.397
 133   6 C      0.276  1.050  2.674  0.000    22.327     7.737
 134   8 O     -0.513  1.754  4.759  0.000    24.069     6.578
 135   1 H      0.233  0.767  0.000  0.000     0.950     1.527
 136   1 H      0.092  0.908  0.000  0.000     1.863     2.134
 137   6 C     -0.078  1.053  3.026  0.000    21.988     6.675
 138   6 C     -0.080  1.047  3.033  0.000    22.016     6.679
 139   6 C     -0.015  1.047  2.968  0.000    20.910     6.523
 140   7 N     -0.164  1.240  3.924  0.000    24.549     7.359
 141   6 C      0.239  1.025  2.736  0.000    23.002     7.852
 142   7 N     -0.236  1.229  4.007  0.000    26.182     7.599
 143   7 N     -0.293  1.317  3.976  0.000    27.563     7.797
 144   1 H      0.084  0.916  0.000  0.000     1.936     2.176
 145   1 H      0.054  0.946  0.000  0.000     2.271     2.357
 146   1 H      0.062  0.938  0.000  0.000     2.173     2.305
 147   1 H      0.083  0.917  0.000  0.000     1.949     2.183
 148   1 H      0.061  0.939  0.000  0.000     2.193     2.316
 149   1 H      0.086  0.914  0.000  0.000     1.914     2.163
 150   1 H      0.231  0.769  0.000  0.000     0.963     1.537
 151   1 H      0.225  0.775  0.000  0.000     0.987     1.556
 152   1 H      0.225  0.775  0.000  0.000     0.989     1.557
 153   1 H      0.236  0.764  0.000  0.000     0.940     1.519
 154   1 H      0.262  0.738  0.000  0.000     0.837     1.433
 155   7 N     -0.189  1.263  3.927  0.000    25.106     7.442
 156   6 C      0.035  1.070  2.895  0.000    19.990     6.367
 157   6 C      0.280  1.043  2.677  0.000    22.263     7.727
 158   8 O     -0.516  1.751  4.766  0.000    24.152     6.589
 159   6 C     -0.057  1.055  3.002  0.000    21.590     6.615
 160   6 C     -0.082  1.061  3.021  0.000    22.072     6.689
 161   6 C      0.372  1.024  2.604  0.000    20.700     7.446
 162   8 O     -0.632  1.761  4.871  0.000    26.928     6.957
 163   8 O     -0.667  1.784  4.884  0.000    27.838     7.074
 164   1 H      0.222  0.778  0.000  0.000     1.000     1.567
 165   1 H      0.055  0.945  0.000  0.000     2.256     2.349
 166   1 H      0.048  0.952  0.000  0.000     2.342     2.393
 167   1 H      0.056  0.944  0.000  0.000     2.243     2.342
 168   1 H      0.013  0.987  0.000  0.000     2.844     2.637
 169   1 H      0.017  0.983  0.000  0.000     2.787     2.611
 170   7 N     -0.175  1.240  3.935  0.000    24.781     7.393
 171   6 C      0.034  1.053  2.913  0.000    19.991     6.365
 172   6 C      0.273  1.046  2.682  0.000    22.389     7.749
 173   8 O     -0.499  1.740  4.759  0.000    23.764     6.536
 174   6 C     -0.075  1.064  3.011  0.000    21.931     6.666
 175   6 C     -0.014  1.050  2.964  0.000    20.788     6.485
 176   6 C     -0.107  1.040  3.067  0.000    22.561     6.766
 177   6 C     -0.104  1.038  3.066  0.000    22.513     6.761
 178   1 H      0.228  0.772  0.000  0.000     0.975     1.547
 179   1 H      0.061  0.939  0.000  0.000     2.187     2.313
 180   1 H      0.060  0.940  0.000  0.000     2.196     2.318
 181   1 H      0.068  0.932  0.000  0.000     2.113     2.273
 182   1 H      0.049  0.951  0.000  0.000     2.329     2.386
 183   1 H      0.049  0.951  0.000  0.000     2.337     2.390
 184   1 H      0.033  0.967  0.000  0.000     2.544     2.494
 185   1 H      0.054  0.946  0.000  0.000     2.268     2.355
 186   1 H      0.043  0.957  0.000  0.000     2.410     2.428
 187   1 H      0.050  0.950  0.000  0.000     2.326     2.385
 188   1 H      0.011  0.989  0.000  0.000     2.872     2.650
 189   7 N     -0.186  1.250  3.936  0.000    25.021     7.429
 190   6 C      0.039  1.053  2.908  0.000    19.922     6.355
 191   6 C      0.271  1.047  2.683  0.000    22.428     7.756
 192   8 O     -0.520  1.768  4.752  0.000    24.227     6.599
 193   6 C     -0.109  1.055  3.053  0.000    22.551     6.757
 194   6 C      0.298  1.019  2.683  0.000    21.950     7.671
 195   8 O     -0.505  1.747  4.759  0.000    23.901     6.555
 196   7 N     -0.251  1.252  3.999  0.000    26.535     7.651
 197   1 H      0.228  0.772  0.000  0.000     0.973     1.545
 198   1 H      0.081  0.919  0.000  0.000     1.964     2.192
 199   1 H      0.101  0.899  0.000  0.000     1.774     2.083
 200   1 H      0.078  0.922  0.000  0.000     2.005     2.214
 201   1 H      0.254  0.746  0.000  0.000     0.867     1.458
 202   1 H      0.226  0.774  0.000  0.000     0.984     1.554
 203   7 N     -0.183  1.256  3.928  0.000    24.973     7.422
 204   6 C      0.033  1.060  2.907  0.000    20.026     6.372
 205   6 C      0.283  1.045  2.673  0.000    22.216     7.719
 206   8 O     -0.516  1.752  4.764  0.000    24.141     6.588
 207   6 C     -0.042  1.050  2.993  0.000    21.322     6.572
 208   6 C     -0.097  1.065  3.032  0.000    22.354     6.732
 209   6 C      0.361  1.029  2.610  0.000    20.878     7.477
 210   8 O     -0.656  1.785  4.871  0.000    27.525     7.034
 211   8 O     -0.596  1.747  4.850  0.000    26.033     6.841
 212   1 H      0.224  0.776  0.000  0.000     0.992     1.560
 213   1 H      0.063  0.937  0.000  0.000     2.164     2.300
 214   1 H      0.033  0.967  0.000  0.000     2.543     2.494
 215   1 H      0.032  0.968  0.000  0.000     2.553     2.499
 216   1 H      0.030  0.970  0.000  0.000     2.592     2.518
 217   1 H      0.048  0.952  0.000  0.000     2.340     2.392
 218   7 N     -0.197  1.254  3.943  0.000    25.269     7.466
 219   6 C      0.034  1.064  2.902  0.000    20.012     6.372
 220   6 C      0.271  1.055  2.674  0.000    22.420     7.753
 221   8 O     -0.492  1.755  4.737  0.000    23.609     6.514
 222   6 C     -0.112  1.040  3.072  0.000    22.703     6.794
 223   1 H      0.213  0.787  0.000  0.000     1.041     1.598
 224   1 H      0.059  0.941  0.000  0.000     2.213     2.326
 225   1 H      0.059  0.941  0.000  0.000     2.213     2.327
 226   1 H      0.059  0.941  0.000  0.000     2.215     2.327
 227   1 H      0.069  0.931  0.000  0.000     2.098     2.265
 228   7 N     -0.179  1.247  3.932  0.000    24.879     7.408
 229   6 C      0.041  1.041  2.917  0.000    19.882     6.349
 230   6 C      0.213  1.076  2.712  0.000    23.497     7.939
 231   8 O     -0.377  1.751  4.626  0.000    21.235     6.178
 232   6 C     -0.075  1.062  3.013  0.000    21.903     6.659
 233   6 C     -0.014  1.059  2.955  0.000    20.790     6.486
 234   6 C     -0.116  1.041  3.074  0.000    22.740     6.795
 235   6 C     -0.116  1.041  3.076  0.000    22.787     6.807
 236   1 H      0.218  0.782  0.000  0.000     1.018     1.581
 237   1 H      0.085  0.915  0.000  0.000     1.924     2.169
 238   1 H      0.058  0.942  0.000  0.000     2.222     2.331
 239   1 H      0.071  0.929  0.000  0.000     2.071     2.250
 240   1 H      0.045  0.955  0.000  0.000     2.377     2.411
 241   1 H      0.057  0.943  0.000  0.000     2.232     2.336
 242   1 H      0.034  0.966  0.000  0.000     2.536     2.490
 243   1 H      0.057  0.943  0.000  0.000     2.238     2.340
 244   1 H      0.052  0.948  0.000  0.000     2.297     2.370
 245   1 H      0.052  0.948  0.000  0.000     2.293     2.368
 246   1 H      0.030  0.970  0.000  0.000     2.586     2.515
 247   8 O     -0.643  1.752  4.891  0.000    26.234     6.913
 248   1 H      0.316  0.684  0.000  0.000     0.675     1.291
 249   1 H      0.294  0.706  0.000  0.000     0.739     1.351
 250   8 O     -0.642  1.762  4.880  0.000    26.205     6.909
 251   1 H      0.312  0.688  0.000  0.000     0.686     1.301
 252   1 H      0.305  0.695  0.000  0.000     0.707     1.321
 253   8 O     -0.619  1.747  4.872  0.000    25.650     6.835
 254   1 H      0.317  0.683  0.000  0.000     0.673     1.289
 255   1 H      0.296  0.704  0.000  0.000     0.735     1.346
 256   8 O     -0.634  1.759  4.875  0.000    26.005     6.883
 257   1 H      0.311  0.689  0.000  0.000     0.688     1.303
 258   1 H      0.298  0.702  0.000  0.000     0.728     1.340
 259   8 O     -0.613  1.744  4.869  0.000    25.497     6.815
 260   1 H      0.280  0.720  0.000  0.000     0.784     1.391
 261   1 H      0.308  0.692  0.000  0.000     0.696     1.311
 262   8 O     -0.652  1.765  4.887  0.000    26.463     6.943
 263   1 H      0.325  0.675  0.000  0.000     0.651     1.268
 264   1 H      0.327  0.673  0.000  0.000     0.644     1.261
 265   7 N     -0.382  1.319  4.064  0.000    29.886     8.119
 266   6 C      0.035  1.057  2.908  0.000    20.009     6.372
 267   6 C      0.205  1.083  2.712  0.000    23.640     7.963
 268   8 O     -0.365  1.756  4.608  0.000    20.986     6.142
 269   6 C     -0.073  1.063  3.010  0.000    21.899     6.662
 270   6 C     -0.087  1.062  3.025  0.000    22.169     6.704
 271   6 C     -0.025  1.055  2.970  0.000    21.113     6.558
 272   7 N     -0.137  1.216  3.921  0.000    23.969     7.271
 273   6 C      0.231  1.023  2.746  0.000    23.154     7.878
 274   7 N     -0.235  1.243  3.991  0.000    26.143     7.594
 275   7 N     -0.247  1.229  4.018  0.000    26.435     7.636
 276   1 H      0.162  0.838  0.000  0.000     1.324     1.802
 277   1 H      0.058  0.942  0.000  0.000     2.228     2.334
 278   1 H      0.057  0.943  0.000  0.000     2.238     2.340
 279   1 H      0.053  0.947  0.000  0.000     2.281     2.362
 280   1 H      0.069  0.931  0.000  0.000     2.091     2.261
 281   1 H      0.071  0.929  0.000  0.000     2.075     2.252
 282   1 H      0.077  0.923  0.000  0.000     2.011     2.218
 283   1 H      0.080  0.920  0.000  0.000     1.981     2.201
 284   1 H      0.239  0.761  0.000  0.000     0.929     1.510
 285   1 H      0.237  0.763  0.000  0.000     0.937     1.516
 286   1 H      0.221  0.779  0.000  0.000     1.004     1.570
 287   1 H      0.252  0.748  0.000  0.000     0.875     1.466
 288   1 H      0.237  0.763  0.000  0.000     0.937     1.516
 289   7 N     -0.388  1.326  4.062  0.000    30.047     8.141
 290   6 C      0.034  1.052  2.914  0.000    20.018     6.373
 291   6 C      0.214  1.072  2.714  0.000    23.484     7.937
 292   8 O     -0.373  1.744  4.629  0.000    21.154     6.167
 293   6 C     -0.068  1.062  3.006  0.000    21.778     6.641
 294   6 C     -0.011  1.052  2.959  0.000    20.742     6.478
 295   6 C     -0.119  1.039  3.081  0.000    22.828     6.810
 296   6 C     -0.116  1.045  3.071  0.000    22.775     6.803
 297   1 H      0.164  0.836  0.000  0.000     1.309     1.792
 298   1 H      0.056  0.944  0.000  0.000     2.247     2.344
 299   1 H      0.057  0.943  0.000  0.000     2.234     2.337
 300   1 H      0.051  0.949  0.000  0.000     2.308     2.376
 301   1 H      0.020  0.980  0.000  0.000     2.727     2.582
 302   1 H      0.039  0.961  0.000  0.000     2.468     2.457
 303   1 H      0.037  0.963  0.000  0.000     2.483     2.464
 304   1 H      0.049  0.951  0.000  0.000     2.331     2.388
 305   1 H      0.027  0.973  0.000  0.000     2.623     2.533
 306   1 H      0.048  0.952  0.000  0.000     2.350     2.397
 307   1 H      0.042  0.958  0.000  0.000     2.419     2.432
 308   7 N     -0.380  1.294  4.086  0.000    29.822     8.111
 309   6 C      0.046  1.052  2.903  0.000    19.827     6.343
 310   6 C      0.189  1.101  2.710  0.000    23.950     8.015
 311   8 O     -0.366  1.740  4.626  0.000    21.008     6.145
 312   6 C     -0.078  1.062  3.016  0.000    21.978     6.674
 313   6 C      0.013  1.082  2.905  0.000    27.732     8.638
 314   6 C     -0.041  1.080  2.961  0.000    29.012     8.835
 315   6 C     -0.040  1.080  2.960  0.000    28.993     8.831
 316   6 C     -0.030  1.073  2.958  0.000    28.760     8.795
 317   6 C     -0.041  1.081  2.959  0.000    29.011     8.833
 318   6 C     -0.033  1.073  2.960  0.000    28.824     8.804
 319   1 H      0.167  0.833  0.000  0.000     1.293     1.781
 320   1 H      0.058  0.942  0.000  0.000     2.220     2.330
 321   1 H      0.060  0.940  0.000  0.000     2.194     2.316
 322   1 H      0.066  0.934  0.000  0.000     2.127     2.281
 323   1 H      0.048  0.952  0.000  0.000     2.340     2.392
 324   1 H      0.036  0.964  0.000  0.000     2.501     2.473
 325   1 H      0.039  0.961  0.000  0.000     2.465     2.455
 326   1 H      0.026  0.974  0.000  0.000     2.650     2.545
 327   1 H      0.021  0.979  0.000  0.000     2.723     2.581
 328   7 N     -0.387  1.299  4.088  0.000    30.015     8.137
 329   6 C      0.037  1.054  2.910  0.000    19.975     6.366
 330   6 C      0.262  1.053  2.685  0.000    22.579     7.782
 331   8 O     -0.503  1.746  4.757  0.000    23.848     6.547
 332   6 C     -0.076  1.065  3.011  0.000    21.942     6.668
 333   6 C     -0.007  1.050  2.957  0.000    20.669     6.466
 334   6 C     -0.109  1.040  3.069  0.000    22.598     6.772
 335   6 C     -0.106  1.038  3.068  0.000    22.555     6.767
 336   1 H      0.156  0.844  0.000  0.000     1.359     1.826
 337   1 H      0.033  0.967  0.000  0.000     2.539     2.492
 338   1 H      0.053  0.947  0.000  0.000     2.280     2.361
 339   1 H      0.049  0.951  0.000  0.000     2.328     2.386
 340   1 H      0.030  0.970  0.000  0.000     2.580     2.512
 341   1 H      0.036  0.964  0.000  0.000     2.508     2.476
 342   1 H      0.032  0.968  0.000  0.000     2.560     2.502
 343   1 H      0.045  0.955  0.000  0.000     2.386     2.416
 344   1 H      0.035  0.965  0.000  0.000     2.523     2.484
 345   1 H      0.041  0.959  0.000  0.000     2.438     2.442
 346   1 H      0.023  0.977  0.000  0.000     2.682     2.561
 347   7 N     -0.168  1.245  3.923  0.000    24.634     7.371
 348   6 C      0.035  1.053  2.912  0.000    19.996     6.367
 349   6 C      0.197  1.088  2.714  0.000    23.792     7.989
 350   8 O     -0.368  1.769  4.599  0.000    21.049     6.151
 351   6 C     -0.117  1.059  3.058  0.000    22.719     6.782
 352   6 C      0.296  1.018  2.687  0.000    21.985     7.677
 353   8 O     -0.518  1.764  4.755  0.000    24.191     6.594
 354   7 N     -0.247  1.245  4.002  0.000    26.443     7.637
 355   1 H      0.236  0.764  0.000  0.000     0.938     1.517
 356   1 H      0.096  0.904  0.000  0.000     1.822     2.111
 357   1 H      0.107  0.893  0.000  0.000     1.726     2.054
 358   1 H      0.085  0.915  0.000  0.000     1.929     2.172
 359   1 H      0.232  0.768  0.000  0.000     0.957     1.532
 360   1 H      0.226  0.774  0.000  0.000     0.982     1.553
 361   7 N     -0.398  1.303  4.094  0.000    30.311     8.177
 362   6 C      0.049  1.038  2.912  0.000    19.760     6.331
 363   6 C      0.200  1.086  2.714  0.000    23.751     7.982
 364   8 O     -0.401  1.758  4.643  0.000    21.700     6.245
 365   6 C     -0.079  1.066  3.013  0.000    21.980     6.671
 366   6 C     -0.012  1.057  2.955  0.000    20.757     6.480
 367   6 C     -0.125  1.045  3.081  0.000    22.934     6.824
 368   6 C     -0.112  1.039  3.073  0.000    22.699     6.794
 369   1 H      0.175  0.825  0.000  0.000     1.241     1.745
 370   1 H      0.042  0.958  0.000  0.000     2.421     2.433
 371   1 H      0.064  0.936  0.000  0.000     2.152     2.294
 372   1 H      0.052  0.948  0.000  0.000     2.299     2.371
 373   1 H      0.045  0.955  0.000  0.000     2.377     2.411
 374   1 H      0.044  0.956  0.000  0.000     2.397     2.421
 375   1 H      0.049  0.951  0.000  0.000     2.332     2.388
 376   1 H      0.056  0.944  0.000  0.000     2.247     2.344
 377   1 H      0.036  0.964  0.000  0.000     2.507     2.476
 378   1 H      0.046  0.954  0.000  0.000     2.365     2.405
 379   1 H      0.022  0.978  0.000  0.000     2.704     2.571
 380   7 N     -0.383  1.324  4.059  0.000    29.901     8.121
 381   6 C      0.039  1.057  2.905  0.000    19.942     6.362
 382   6 C      0.197  1.092  2.711  0.000    23.809     7.992
 383   8 O     -0.381  1.765  4.616  0.000    21.311     6.189
 384   1 H      0.163  0.837  0.000  0.000     1.317     1.798
 385   1 H      0.065  0.935  0.000  0.000     2.146     2.291
 386   6 C     -0.073  1.057  3.017  0.000    21.890     6.659
 387   6 C      0.002  1.075  2.924  0.000    27.987     8.677
 388   6 C     -0.044  1.077  2.967  0.000    29.095     8.846
 389   6 C     -0.049  1.083  2.967  0.000    29.222     8.866
 390   6 C     -0.057  1.074  2.983  0.000    29.410     8.893
 391   6 C     -0.074  1.077  2.997  0.000    29.858     8.961
 392   6 C      0.143  1.044  2.812  0.000    24.874     8.174
 393   8 O     -0.430  1.715  4.715  0.000    21.436     6.250
 394   1 H      0.064  0.936  0.000  0.000     2.153     2.295
 395   1 H      0.053  0.947  0.000  0.000     2.282     2.362
 396   1 H      0.046  0.954  0.000  0.000     2.376     2.410
 397   1 H      0.058  0.942  0.000  0.000     2.221     2.330
 398   1 H      0.044  0.956  0.000  0.000     2.394     2.419
 399   1 H      0.048  0.952  0.000  0.000     2.348     2.396
 400   1 H      0.319  0.681  0.000  0.000     0.667     1.283
 401   7 N     -0.402  1.326  4.076  0.000    30.437     8.194
 402   6 C      0.027  1.062  2.911  0.000    20.128     6.389
 403   6 C      0.261  1.055  2.684  0.000    22.600     7.786
 404   8 O     -0.486  1.751  4.735  0.000    23.476     6.496
 405   6 C     -0.062  1.050  3.011  0.000    21.637     6.614
 406   6 C     -0.008  1.054  2.954  0.000    20.714     6.479
 407  16 S     -0.238  1.923  4.256  0.060   151.257    20.700
 408   6 C     -0.051  1.052  2.999  0.000    21.564     6.624
 409   1 H      0.163  0.837  0.000  0.000     1.318     1.798
 410   1 H      0.048  0.952  0.000  0.000     2.350     2.397
 411   1 H      0.053  0.947  0.000  0.000     2.288     2.366
 412   1 H      0.046  0.954  0.000  0.000     2.369     2.407
 413   1 H      0.057  0.943  0.000  0.000     2.232     2.336
 414   1 H      0.081  0.919  0.000  0.000     1.971     2.196
 415   1 H      0.048  0.952  0.000  0.000     2.343     2.394
 416   1 H      0.048  0.952  0.000  0.000     2.345     2.394
 417   1 H      0.059  0.941  0.000  0.000     2.213     2.326
 418   7 N     -0.148  1.232  3.916  0.000    24.202     7.306
 419   6 C      0.033  1.052  2.915  0.000    20.015     6.369
 420   6 C      0.202  1.087  2.711  0.000    23.711     7.975
 421   8 O     -0.357  1.757  4.600  0.000    20.837     6.120
 422   6 C     -0.078  1.061  3.017  0.000    21.992     6.676
 423   6 C      0.011  1.079  2.910  0.000    27.762     8.642
 424   6 C     -0.040  1.079  2.961  0.000    28.999     8.833
 425   6 C     -0.040  1.080  2.960  0.000    28.986     8.830
 426   6 C     -0.030  1.073  2.957  0.000    28.749     8.793
 427   6 C     -0.034  1.082  2.952  0.000    28.851     8.809
 428   6 C     -0.029  1.074  2.955  0.000    28.729     8.790
 429   1 H      0.216  0.784  0.000  0.000     1.026     1.587
 430   1 H      0.091  0.909  0.000  0.000     1.873     2.140
 431   1 H      0.073  0.927  0.000  0.000     2.057     2.243
 432   1 H      0.080  0.920  0.000  0.000     1.981     2.201
 433   1 H      0.041  0.959  0.000  0.000     2.438     2.442
 434   1 H      0.035  0.965  0.000  0.000     2.522     2.484
 435   1 H      0.045  0.955  0.000  0.000     2.386     2.415
 436   1 H      0.031  0.969  0.000  0.000     2.575     2.510
 437   1 H      0.028  0.972  0.000  0.000     2.621     2.532
 438   7 N     -0.393  1.301  4.091  0.000    30.168     8.157
 439   6 C      0.049  1.052  2.899  0.000    19.765     6.333
 440   6 C      0.198  1.098  2.704  0.000    23.787     7.987
 441   8 O     -0.401  1.761  4.640  0.000    21.701     6.246
 442   6 C     -0.063  1.063  3.000  0.000    21.703     6.631
 443   6 C     -0.012  1.052  2.961  0.000    20.758     6.480
 444   6 C     -0.103  1.040  3.064  0.000    22.491     6.756
 445   6 C     -0.110  1.040  3.070  0.000    22.632     6.778
 446   1 H      0.175  0.825  0.000  0.000     1.241     1.745
 447   1 H      0.048  0.952  0.000  0.000     2.347     2.396
 448   1 H      0.042  0.958  0.000  0.000     2.419     2.432
 449   1 H      0.034  0.966  0.000  0.000     2.529     2.487
 450   1 H      0.064  0.936  0.000  0.000     2.154     2.295
 451   1 H      0.041  0.959  0.000  0.000     2.435     2.440
 452   1 H      0.014  0.986  0.000  0.000     2.828     2.630
 453   1 H      0.040  0.960  0.000  0.000     2.444     2.445
 454   1 H      0.051  0.949  0.000  0.000     2.308     2.376
 455   1 H      0.036  0.964  0.000  0.000     2.496     2.471
 456   1 H      0.035  0.965  0.000  0.000     2.521     2.483
 457   7 N     -0.386  1.301  4.085  0.000    29.988     8.133
 458   6 C      0.045  1.051  2.904  0.000    19.833     6.344
 459   6 C      0.193  1.099  2.708  0.000    23.870     8.001
 460   8 O     -0.394  1.762  4.632  0.000    21.559     6.225
 461   6 C     -0.071  1.064  3.007  0.000    21.843     6.653
 462   6 C     -0.009  1.051  2.958  0.000    20.697     6.471
 463   6 C     -0.113  1.041  3.072  0.000    22.680     6.784
 464   6 C     -0.109  1.039  3.071  0.000    22.613     6.775
 465   1 H      0.175  0.825  0.000  0.000     1.243     1.747
 466   1 H      0.044  0.956  0.000  0.000     2.391     2.418
 467   1 H      0.057  0.943  0.000  0.000     2.231     2.336
 468   1 H      0.041  0.959  0.000  0.000     2.441     2.443
 469   1 H      0.041  0.959  0.000  0.000     2.441     2.443
 470   1 H      0.048  0.952  0.000  0.000     2.342     2.393
 471   1 H      0.038  0.962  0.000  0.000     2.472     2.459
 472   1 H      0.043  0.957  0.000  0.000     2.409     2.427
 473   1 H      0.046  0.954  0.000  0.000     2.366     2.406
 474   1 H      0.036  0.964  0.000  0.000     2.501     2.473
 475   1 H      0.027  0.973  0.000  0.000     2.635     2.538
 476   7 N     -0.392  1.301  4.092  0.000    30.162     8.157
 477   6 C      0.050  1.037  2.912  0.000    19.743     6.328
 478   6 C      0.202  1.085  2.713  0.000    23.713     7.976
 479   8 O     -0.405  1.766  4.639  0.000    21.777     6.257
 480   6 C     -0.065  1.061  3.004  0.000    21.730     6.632
 481   6 C     -0.006  1.058  2.948  0.000    20.657     6.465
 482   6 C     -0.106  1.039  3.067  0.000    22.556     6.767
 483   6 C     -0.092  1.033  3.059  0.000    22.307     6.735
 484   1 H      0.190  0.810  0.000  0.000     1.160     1.687
 485   1 H      0.033  0.967  0.000  0.000     2.540     2.493
 486   1 H      0.061  0.939  0.000  0.000     2.187     2.313
 487   1 H      0.032  0.968  0.000  0.000     2.565     2.504
 488   1 H      0.055  0.945  0.000  0.000     2.256     2.349
 489   1 H      0.041  0.959  0.000  0.000     2.441     2.443
 490   1 H      0.054  0.946  0.000  0.000     2.274     2.358
 491   1 H      0.033  0.967  0.000  0.000     2.548     2.496
 492   1 H      0.026  0.974  0.000  0.000     2.640     2.541
 493   1 H      0.019  0.981  0.000  0.000     2.742     2.589
 494   1 H      0.020  0.980  0.000  0.000     2.730     2.584
 495   1 H      0.179  0.821  0.000  0.000     1.221     1.731
 496   1 H      0.084  0.916  0.000  0.000     1.937     2.176
 497   1 H      0.169  0.831  0.000  0.000     1.276     1.770
 498   1 H      0.055  0.945  0.000  0.000     2.256     2.349
 499   1 H      0.184  0.816  0.000  0.000     1.189     1.708
 500   1 H      0.074  0.926  0.000  0.000     2.040     2.233
 501   1 H      0.187  0.813  0.000  0.000     1.172     1.696
 502   1 H      0.051  0.949  0.000  0.000     2.306     2.375
 503   1 H      0.184  0.816  0.000  0.000     1.192     1.710
 504   1 H      0.078  0.922  0.000  0.000     2.002     2.213
 505   1 H      0.177  0.823  0.000  0.000     1.233     1.740
 506   1 H      0.075  0.925  0.000  0.000     2.032     2.229
 507   1 H      0.166  0.834  0.000  0.000     1.294     1.782
 508   1 H      0.071  0.929  0.000  0.000     2.071     2.250
 509   1 H      0.192  0.808  0.000  0.000     1.147     1.678
 510   1 H      0.069  0.931  0.000  0.000     2.097     2.264
 511   1 H      0.185  0.815  0.000  0.000     1.183     1.704
 512   1 H      0.077  0.923  0.000  0.000     2.011     2.217
 513   1 H      0.179  0.821  0.000  0.000     1.219     1.729
 514   1 H      0.065  0.935  0.000  0.000     2.140     2.287
 515   1 H      0.180  0.820  0.000  0.000     1.215     1.726
 516   1 H      0.075  0.925  0.000  0.000     2.027     2.226
[...]
   168  H   1.000    C  160 0.969
   169  H   1.000    C  160 0.965
   170  N   3.483    C  157 1.327    C  171 0.985    H  178 0.893    O  158 0.192
   171  C   3.954    N  170 0.985    C  174 0.968    H  179 0.947    C  172 0.935
   172  C   3.946    O  173 1.604    N  189 1.322    C  171 0.935
   173  O   1.938    C  172 1.604    N  189 0.191
   174  C   3.980    C  175 0.989    H  181 0.970    H  180 0.970    C  171 0.968
   175  C   3.992    C  177 1.011    C  176 1.010    C  174 0.989    H  182 0.957
   176  C   3.993    C  175 1.010    H  183 0.983    H  184 0.983    H  185 0.981
   177  C   3.995    C  175 1.011    H  186 0.981    H  188 0.979    H  187 0.970
   178  H   0.948    N  170 0.893
   179  H   0.996    C  171 0.947
   180  H   0.996    C  174 0.970
   181  H   0.995    C  174 0.970
   182  H   0.997    C  175 0.957
   183  H   0.997    C  176 0.983
   184  H   0.999    C  176 0.983
   185  H   0.997    C  176 0.981
   186  H   0.998    C  177 0.981
   187  H   0.997    C  177 0.970
   188  H   1.000    C  177 0.979
   189  N   3.469    C  172 1.322    C  190 0.970    H  197 0.887    O  173 0.191
   190  C   3.968    C  193 0.977    N  189 0.970    C  191 0.953    H  198 0.942
   191  C   3.945    O  192 1.591    N  203 1.321    C  190 0.953
   192  O   1.906    C  191 1.591    N  203 0.198
   193  C   3.984    C  190 0.977    H  200 0.967    C  194 0.960    H  199 0.945    O  195 0.051
   194  C   3.954    O  195 1.584    N  196 1.381    C  193 0.960
   195  O   1.951    C  194 1.584    N  196 0.198    C  193 0.051
   196  N   3.445    C  194 1.381    H  202 0.910    H  201 0.908    O  195 0.198
   197  H   0.948    N  189 0.887
   198  H   0.993    C  190 0.942
   199  H   0.989    C  193 0.945
   200  H   0.994    C  193 0.967
   201  H   0.935    N  196 0.908
   202  H   0.948    N  196 0.910
   203  N   3.484    C  191 1.321    C  204 0.986    H  212 0.886    O  192 0.198
   204  C   3.968    N  203 0.986    C  207 0.965    H  213 0.951    C  205 0.944
   205  C   3.944    O  206 1.617    N  218 1.298    C  204 0.944
   206  O   1.925    C  205 1.617    N  218 0.191
   207  C   3.987    C  208 1.009    H  214 0.975    H  215 0.974    C  204 0.965
   208  C   3.983    C  207 1.009    H  216 0.971    H  217 0.959    C  209 0.917    O  211 0.051    O  210 0.050
   209  C   3.938    O  211 1.515    O  210 1.474    C  208 0.917
   210  O   1.790    C  209 1.474    O  211 0.214    C  208 0.050
   211  O   1.817    C  209 1.515    O  210 0.214    C  208 0.051
   212  H   0.950    N  203 0.886
   213  H   0.996    C  204 0.951
   214  H   0.999    C  207 0.975
   215  H   0.998    C  207 0.974
   216  H   0.999    C  208 0.971
   217  H   0.998    C  208 0.959
   218  N   3.457    C  205 1.298    C  219 0.975    H  223 0.899    O  206 0.191
   219  C   3.961    C  222 0.996    N  218 0.975    H  224 0.955    C  220 0.934
   220  C   3.947    O  221 1.646    N  228 1.289    C  219 0.934
   221  O   1.956    C  220 1.646    N  228 0.200
   222  C   3.988    C  219 0.996    H  227 0.982    H  225 0.981    H  226 0.978
   223  H   0.954    N  218 0.899
   224  H   0.996    C  219 0.955
   225  H   0.996    C  222 0.981
   226  H   0.996    C  222 0.978
   227  H   0.995    C  222 0.982
   228  N   3.464    C  220 1.289    C  229 0.975    H  236 0.903    O  221 0.200
   229  C   3.961    C  230 0.998    N  228 0.975    C  232 0.964    H  237 0.931    O  231 0.052
   230  C   3.906    O  231 1.871    C  229 0.998    H  498 0.955
   231  O   2.015    C  230 1.871    C  229 0.052
   232  C   3.976    C  233 0.977    H  238 0.969    H  239 0.968    C  229 0.964
   233  C   3.990    C  234 1.011    C  235 1.010    C  232 0.977    H  240 0.965
   234  C   3.992    C  233 1.011    H  243 0.983    H  242 0.981    H  241 0.980
   235  C   3.994    C  233 1.010    H  245 0.985    H  246 0.984    H  244 0.981
   236  H   0.952    N  228 0.903
   237  H   0.993    C  229 0.931
   238  H   0.997    C  232 0.969
   239  H   0.994    C  232 0.968
   240  H   0.998    C  233 0.965
   241  H   0.995    C  234 0.980
   242  H   0.999    C  234 0.981
   243  H   0.997    C  234 0.983
   244  H   0.997    C  235 0.981
   245  H   0.997    C  235 0.985
   246  H   0.999    C  235 0.984
   247  O   1.794    H  249 0.912    H  248 0.848
   248  H   0.900    O  247 0.848
   249  H   0.914    O  247 0.912
   250  O   1.794    H  252 0.906    H  251 0.864
   251  H   0.903    O  250 0.864
   252  H   0.907    O  250 0.906
   253  O   1.820    H  254 0.895    H  255 0.885
   254  H   0.900    O  253 0.895
   255  H   0.913    O  253 0.885
   256  O   1.804    H  257 0.900    H  258 0.870
   257  H   0.903    O  256 0.900
   258  H   0.911    O  256 0.870
   259  O   1.821    H  260 0.912    H  261 0.855
   260  H   0.921    O  259 0.912
   261  H   0.905    O  259 0.855
   262  O   1.788    H  263 0.895    H  264 0.893
   263  H   0.895    O  262 0.895
   264  H   0.893    O  262 0.893
   265  N   2.992    C  266 1.006    H  276 0.958    H  499 0.949
   266  C   3.985    N  265 1.006    C  267 0.984    H  277 0.963    C  269 0.955    O  268 0.055
   267  C   3.896    O  268 1.907    C  266 0.984    H  500 0.953
   268  O   2.044    C  267 1.907    C  266 0.055
   269  C   3.990    C  270 1.005    H  279 0.975    H  278 0.970    C  266 0.955
   270  C   3.988    C  269 1.005    C  271 0.999    H  280 0.976    H  281 0.974
   271  C   3.951    C  270 0.999    N  272 0.981    H  283 0.966    H  282 0.961
   272  N   3.469    C  273 1.324    C  271 0.981    H  284 0.911    N  275 0.104    N  274 0.097
   273  C   3.976    N  272 1.324    N  275 1.312    N  274 1.306
   274  N   3.383    C  273 1.306    H  286 0.929    H  285 0.910    N  272 0.097    N  275 0.096
   275  N   3.392    C  273 1.312    H  288 0.925    H  287 0.914    N  272 0.104    N  274 0.096
   276  H   0.974    N  265 0.958
   277  H   0.997    C  266 0.963
   278  H   0.997    C  269 0.970
   279  H   0.997    C  269 0.975
   280  H   0.995    C  270 0.976
   281  H   0.995    C  270 0.974
   282  H   0.994    C  271 0.961
   283  H   0.994    C  271 0.966
   284  H   0.943    N  272 0.911
   285  H   0.944    N  274 0.910
   286  H   0.951    N  274 0.929
   287  H   0.936    N  275 0.914
   288  H   0.944    N  275 0.925
   289  N   2.990    C  290 1.006    H  297 0.957    H  501 0.952
   290  C   3.986    N  289 1.006    C  291 1.002    H  298 0.958    C  293 0.939    O  292 0.055
   291  C   3.905    O  292 1.888    C  290 1.002    H  502 0.954
   292  O   2.034    C  291 1.888    C  290 0.055
   293  C   3.992    C  294 1.004    H  300 0.973    H  299 0.965    C  290 0.939
   294  C   3.997    C  295 1.012    C  293 1.004    C  296 0.998    H  301 0.967
   295  C   3.995    C  294 1.012    H  302 0.983    H  304 0.981    H  303 0.980
   296  C   3.995    C  294 0.998    H  307 0.987    H  305 0.986    H  306 0.985
   297  H   0.973    N  289 0.957
   298  H   0.997    C  290 0.958
   299  H   0.997    C  293 0.965
   300  H   0.997    C  293 0.973
   301  H   0.999    C  294 0.967
   302  H   0.998    C  295 0.983
   303  H   0.999    C  295 0.980
   304  H   0.998    C  295 0.981
   305  H   0.999    C  296 0.986
   306  H   0.998    C  296 0.985
   307  H   0.998    C  296 0.987
   308  N   3.018    C  309 1.040    H  503 0.952    H  319 0.950
   309  C   3.986    N  308 1.040    C  310 0.970    H  320 0.943    C  312 0.939    O  311 0.058
   310  C   3.887    O  311 1.872    C  309 0.970    H  504 0.954
   311  O   2.047    C  310 1.872    C  309 0.058
   312  C   3.991    C  313 1.002    H  321 0.973    H  322 0.961    C  309 0.939
   313  C   3.987    C  315 1.464    C  314 1.369    C  312 1.002    C  318 0.104
   314  C   3.991    C  316 1.476    C  313 1.369    H  323 0.962    C  317 0.123
   315  C   3.990    C  313 1.464    C  317 1.396    H  324 0.968    C  316 0.104
   316  C   3.993    C  314 1.476    C  318 1.417    H  325 0.966    C  315 0.104
   317  C   3.989    C  318 1.469    C  315 1.396    H  326 0.960    C  314 0.123
   318  C   3.992    C  317 1.469    C  316 1.417    H  327 0.966    C  313 0.104
   319  H   0.972    N  308 0.950
   320  H   0.997    C  309 0.943
   321  H   0.996    C  312 0.973
   322  H   0.996    C  312 0.961
   323  H   0.998    C  314 0.962
   324  H   0.999    C  315 0.968
   325  H   0.998    C  316 0.966
   326  H   0.999    C  317 0.960
   327  H   0.999    C  318 0.966
   328  N   3.005    C  329 1.025    H  505 0.956    H  336 0.951
   329  C   3.982    N  328 1.025    C  332 0.969    H  337 0.959    C  330 0.934
   330  C   3.944    O  331 1.607    N  347 1.320    C  329 0.934
   331  O   1.937    C  330 1.607    N  347 0.192
   332  C   3.992    C  333 0.991    H  339 0.973    H  338 0.970    C  329 0.969
   333  C   3.996    C  335 1.011    C  334 1.010    C  332 0.991    H  340 0.966
   334  C   3.994    C  333 1.010    H  341 0.984    H  342 0.983    H  343 0.983
   335  C   3.995    C  333 1.011    H  344 0.984    H  346 0.983    H  345 0.971
   336  H   0.975    N  328 0.951
   337  H   0.998    C  329 0.959
   338  H   0.997    C  332 0.970
   339  H   0.998    C  332 0.973
   340  H   0.998    C  333 0.966
   341  H   0.998    C  334 0.984
   342  H   0.999    C  334 0.983
   343  H   0.998    C  334 0.983
   344  H   0.999    C  335 0.984
   345  H   0.998    C  335 0.971
   346  H   0.999    C  335 0.983
   347  N   3.473    C  330 1.320    C  348 0.970    H  355 0.888    O  331 0.192
   348  C   3.970    C  349 0.988    N  347 0.970    C  351 0.964    H  356 0.938
   349  C   3.905    O  350 1.882    C  348 0.988    H  506 0.958
   350  O   2.017    C  349 1.882
   351  C   3.982    H  358 0.968    C  348 0.964    C  352 0.958    H  357 0.942    O  353 0.052
   352  C   3.955    O  353 1.618    N  354 1.355    C  351 0.958
   353  O   1.923    C  352 1.618    N  354 0.202    C  351 0.052
   354  N   3.430    C  352 1.355    H  359 0.916    H  360 0.907    O  353 0.202
   355  H   0.944    N  347 0.888
   356  H   0.991    C  348 0.938
   357  H   0.989    C  351 0.942
   358  H   0.993    C  351 0.968
   359  H   0.946    N  354 0.916
   360  H   0.949    N  354 0.907
   361  N   2.993    C  362 1.006    H  507 0.959    H  369 0.934
   362  C   3.986    N  361 1.006    C  363 1.003    C  365 0.961    H  370 0.944    O  364 0.053
   363  C   3.895    O  364 1.859    C  362 1.003    H  508 0.953
   364  O   2.001    C  363 1.859    C  362 0.053
   365  C   3.988    C  366 0.980    H  372 0.970    H  371 0.968    C  362 0.961
   366  C   3.993    C  367 1.011    C  368 1.009    C  365 0.980    H  373 0.964
   367  C   3.992    C  366 1.011    H  376 0.981    H  375 0.979    H  374 0.977
   368  C   3.995    C  366 1.009    H  378 0.985    H  379 0.984    H  377 0.982
   369  H   0.969    N  361 0.934
   370  H   0.998    C  362 0.944
   371  H   0.996    C  365 0.968
   372  H   0.997    C  365 0.970
   373  H   0.998    C  366 0.964
   374  H   0.996    C  367 0.977
   375  H   0.998    C  367 0.979
   376  H   0.997    C  367 0.981
   377  H   0.998    C  368 0.982
   378  H   0.998    C  368 0.985
   379  H   0.999    C  368 0.984
   380  N   3.006    C  381 1.031    H  384 0.955    H  509 0.950
   381  C   3.985    N  380 1.031    C  382 0.978    H  385 0.952    C  386 0.937    O  383 0.058
   382  C   3.894    O  383 1.889    C  381 0.978    H  510 0.956
   383  O   2.027    C  382 1.889    C  381 0.058
   384  H   0.973    N  380 0.955
   385  H   0.996    C  381 0.952
   386  C   3.990    C  387 1.013    H  394 0.965    H  395 0.949    C  381 0.937
   387  C   3.988    C  389 1.410    C  388 1.393    C  386 1.013    C  392 0.096
   388  C   3.991    C  390 1.467    C  387 1.393    H  396 0.962    C  391 0.104
   389  C   3.987    C  391 1.442    C  387 1.410    H  397 0.946    C  390 0.107
   390  C   3.988    C  388 1.467    C  392 1.358    H  398 0.966    C  389 0.107
   391  C   3.985    C  389 1.442    C  392 1.381    H  399 0.952    C  388 0.104    O  393 0.057
   392  C   3.932    C  391 1.381    C  390 1.358    O  393 1.058    C  387 0.096
   393  O   2.080    C  392 1.058    H  400 0.868    C  391 0.057
   394  H   0.995    C  386 0.965
   395  H   0.996    C  386 0.949
   396  H   0.998    C  388 0.962
   397  H   0.997    C  389 0.946
   398  H   0.998    C  390 0.966
   399  H   0.997    C  391 0.952
   400  H   0.898    O  393 0.868
   401  N   2.978    C  402 0.995    H  409 0.958    H  511 0.957
   402  C   3.984    N  401 0.995    C  405 0.982    H  410 0.962    C  403 0.956
   403  C   3.946    O  404 1.589    N  418 1.306    C  402 0.956
   404  O   1.970    C  403 1.589    N  418 0.190
   405  C   3.994    C  406 1.012    C  402 0.982    H  411 0.973    H  412 0.966
   406  C   3.976    C  405 1.012    S  407 0.998    H  413 0.964    H  414 0.958
   407  S   2.096    C  408 1.002    C  406 0.998
   408  C   3.980    S  407 1.002    H  417 0.982    H  416 0.982    H  415 0.978
   409  H   0.973    N  401 0.958
   410  H   0.997    C  402 0.962
   411  H   0.997    C  405 0.973
   412  H   0.998    C  405 0.966
   413  H   0.997    C  406 0.964
   414  H   0.993    C  406 0.958
   415  H   0.998    C  408 0.978
   416  H   0.998    C  408 0.982
   417  H   0.997    C  408 0.982
   418  N   3.496    C  403 1.306    C  419 1.008    H  429 0.917    O  404 0.190
   419  C   3.967    N  418 1.008    C  420 0.962    C  422 0.951    H  430 0.929    O  421 0.059
   420  C   3.900    O  421 1.904    C  419 0.962    H  512 0.953
   421  O   2.048    C  420 1.904    C  419 0.059
   422  C   3.984    C  423 0.999    H  431 0.971    H  432 0.960    C  419 0.951
   423  C   3.987    C  425 1.467    C  424 1.371    C  422 0.999    C  428 0.104
   424  C   3.992    C  426 1.474    C  423 1.371    H  433 0.964    C  427 0.124
   425  C   3.990    C  423 1.467    C  427 1.396    H  434 0.968    C  426 0.104
   426  C   3.992    C  424 1.474    C  428 1.418    H  435 0.966    C  425 0.104
   427  C   3.990    C  428 1.468    C  425 1.396    H  436 0.972    C  424 0.124
   428  C   3.992    C  427 1.468    C  426 1.418    H  437 0.966    C  423 0.104
   429  H   0.953    N  418 0.917
   430  H   0.992    C  419 0.929
   431  H   0.994    C  422 0.971
   432  H   0.993    C  422 0.960
   433  H   0.998    C  424 0.964
   434  H   0.999    C  425 0.968
   435  H   0.998    C  426 0.966
   436  H   0.999    C  427 0.972
   437  H   0.998    C  428 0.966
   438  N   3.008    C  439 1.027    H  513 0.955    H  446 0.932
   439  C   3.985    N  438 1.027    C  440 0.977    H  447 0.953    C  442 0.949    O  441 0.056
   440  C   3.885    O  441 1.870    C  439 0.977    H  514 0.956
   441  O   2.008    C  440 1.870    C  439 0.056
   442  C   3.991    C  443 0.986    H  449 0.975    H  448 0.973    C  439 0.949
   443  C   3.991    C  445 1.011    C  444 1.009    C  442 0.986    H  450 0.955
   444  C   3.995    C  443 1.009    H  452 0.984    H  451 0.983    H  453 0.983
   445  C   3.995    C  443 1.011    H  454 0.981    H  456 0.978    H  455 0.972
   446  H   0.969    N  438 0.932
   447  H   0.998    C  439 0.953
   448  H   0.998    C  442 0.973
   449  H   0.999    C  442 0.975
   450  H   0.995    C  443 0.955
   451  H   0.997    C  444 0.983
   452  H   1.000    C  444 0.984
   453  H   0.998    C  444 0.983
   454  H   0.997    C  445 0.981
   455  H   0.999    C  445 0.972
   456  H   0.999    C  445 0.978
   457  N   3.009    C  458 1.026    H  515 0.955    H  465 0.946
   458  C   3.985    N  457 1.026    C  459 0.975    H  466 0.954    C  461 0.951    O  460 0.055
   459  C   3.883    O  460 1.867    C  458 0.975    H  516 0.954
   460  O   2.026    C  459 1.867    C  458 0.055
   461  C   3.989    C  462 0.987    H  468 0.973    H  467 0.973    C  458 0.951
   462  C   3.995    C  464 1.011    C  463 1.009    C  461 0.987    H  469 0.965
   463  C   3.993    C  462 1.009    H  471 0.985    H  472 0.983    H  470 0.983
   464  C   3.995    C  462 1.011    H  473 0.982    H  475 0.978    H  474 0.971
   465  H   0.969    N  457 0.946
   466  H   0.998    C  458 0.954
   467  H   0.997    C  461 0.973
   468  H   0.998    C  461 0.973
   469  H   0.998    C  462 0.965
   470  H   0.996    C  463 0.983
   471  H   0.998    C  463 0.985
   472  H   0.998    C  463 0.983
   473  H   0.997    C  464 0.982
   474  H   0.999    C  464 0.971
   475  H   0.999    C  464 0.978
   476  N   2.991    C  477 1.009    H  517 0.958    H  484 0.930
   477  C   3.989    N  476 1.009    C  478 1.002    C  480 0.962    H  485 0.945    O  479 0.051
   478  C   3.894    O  479 1.863    C  477 1.002    H  518 0.951
   479  O   2.004    C  478 1.863    C  477 0.051
   480  C   3.990    C  481 0.980    H  487 0.974    H  486 0.970    C  477 0.962
   481  C   3.992    C  482 1.011    C  483 1.009    C  480 0.980    H  488 0.963
   482  C   3.994    C  481 1.011    H  491 0.986    H  490 0.981    H  489 0.977
   483  C   3.994    C  481 1.009    H  493 0.986    H  492 0.982    H  494 0.981
   484  H   0.964    N  476 0.930
   485  H   0.999    C  477 0.945
   486  H   0.996    C  480 0.970
   487  H   0.999    C  480 0.974
   488  H   0.997    C  481 0.963
   489  H   0.997    C  482 0.977
   490  H   0.997    C  482 0.981
   491  H   0.999    C  482 0.986
   492  H   0.999    C  483 0.982
   493  H   0.999    C  483 0.986
   494  H   1.000    C  483 0.981
   495  H   0.968    N    1 0.949
   496  H   0.993    C    3 0.954
   497  H   0.971    N   20 0.960
   498  H   0.997    C  230 0.955
   499  H   0.966    N  265 0.949
   500  H   0.994    C  267 0.953
   501  H   0.965    N  289 0.952
   502  H   0.997    C  291 0.954
   503  H   0.966    N  308 0.952
   504  H   0.994    C  310 0.954
   505  H   0.969    N  328 0.956
   506  H   0.994    C  349 0.958
   507  H   0.972    N  361 0.959
   508  H   0.995    C  363 0.953
   509  H   0.963    N  380 0.950
   510  H   0.995    C  382 0.956
   511  H   0.965    N  401 0.957
   512  H   0.994    C  420 0.953
   513  H   0.968    N  438 0.955
   514  H   0.996    C  440 0.956
   515  H   0.968    N  457 0.955
   516  H   0.994    C  459 0.954
   517  H   0.973    N  476 0.958
   518  H   0.994    C  478 0.951
 
molecular dipole:
                 x           y           z       tot (Debye)
 q only:        4.092      -4.488     -21.779
   full:        2.201      -5.586     -18.726      49.985
molecular quadrupole (traceless):
                xx          xy          yy          xz          yz          zz
 q only:       -3.344     542.046    1165.950       8.033   -1026.839   -1162.606
  q+dip:      -68.373     423.904    1016.754     -12.446    -833.505    -948.381
   full:      -66.090     424.090    1014.391     -10.561    -836.283    -948.301
speedup 10.34
cpu  time for grad   42.09 s
wall time for grad    4.07 s

SCC energy    :    -779.8263012
rep           :       9.9087117
ES            :       2.4333386
AES           :      -0.1025696
AXC           :       0.3031581
disp          :      -0.6684940
XB            :       0.0000000
fix           :       0.0000000
Gborn         :       0.0000000
Gsasa         :       0.0000000
Ghb           :       0.0000000
Gshift        :       0.0000000
Gsolv         :      -0.6373686     -399.95
Etot ala COSMO:    -779.8263012
grad norm     :       0.8342190
total E       :    -769.8440674
atomizationE  :     142.1875001    89224.00
(atE without considering molecular charge,
 total energy contains solvation terms)
H-L gap (eV)  :          1.4814

------------------------------------------------------------------------
 * finished run on 2019/02/16 at 08:10:56.390     
------------------------------------------------------------------------
 total:
 * wall-time:     0 d,  0 h,  0 min,  4.667 sec
 *  cpu-time:     0 d,  0 h,  0 min, 46.684 sec
 * ratio c/w:    10.002 speedup
 SCF:
 * wall-time:     0 d,  0 h,  0 min,  4.430 sec
 *  cpu-time:     0 d,  0 h,  0 min, 44.920 sec
 * ratio c/w:    10.141 speedup

