      -----------------------------------------------------------      
     |                   =====================                   |     
     |                           x T B                           |     
     |                   =====================                   |     
     |                         S. Grimme                         |     
     |          Mulliken Center for Theoretical Chemistry        |     
     |                    University of Bonn                     |     
     |                 Version 6.0.1 (SAW181210)                 |     
      -----------------------------------------------------------      

   This program is distributed in the hope that it will be useful,
   but WITHOUT ANY WARRANTY; without even the implied warranty of
   MERCHANTABILITY or FITNESS FOR A PARTICULAR PURPOSE.
   
   FOR NON-COMMERCIAL, ACADEMIA USE ONLY.
   
   Cite this work as:
   S. Grimme, C. Bannwarth, P. Shushkov, J. Comput. Theory Chem., 2017,
   13, 1989-2009.
   C. Bannwarth, S. Ehlert and S. Grimme., ChemRxiv, 2018, preprint.
   http://doi.org/10.26434/chemrxiv.7246238.v1
   
   for sTDA-xTB:
   S. Grimme and C. Bannwarth, J. Chem. Phys., 2016, 145, 054103.
   
   in the mass-spec context:
   V. Asgeirsson, C. Bauer and S. Grimme, Chem. Sci., 2017, 8, 4879.
   
   if GBSA is used:
   P. Shushkov, F. März and S. Grimme, unpublished.
   
   for ANC optimizer:
   S. Grimme, unpublished.
   Rational Function algorithm used in ANCopt:
   F. Eckert, P. Pulay, H.-J. Werner, J. Comput. Chem., 1997, 18, 1473.
   
   with help from (in alphabetical order)
   C. Bannwarth, F. Bohle, G. Brandenburg, E. Caldeweyher, M. Checinski,
   S. Dohm, S. Ehlert, S. Ehrlich, F. März, H. Neugebauer, J. Pisarek,
   P. Pracht, P. Shushkov, and S. Spicher.
   
 * started run on 2019/02/16 at 08:10:59.061     
========================================================================
 # omp threads = 12
========================================================================
number of atoms            : 351
number of electrons        : 928
charge                     : 1
spin                       : .0
first test random number   : .1952

########################################################################
# WARNING! Please study the warnings concerning your input carefully
#  - Process number higher than OMP_NUM_THREADS, I hope you know what you are doing.
########################################################################

           ------------------------------------------------- 
          |                 G F N 2 - x T B                 |
          | Geometry, Frequencies, Noncovalent interactions |
          |            JCTC 2018 parametrisation            |
           ------------------------------------------------- 
 
      method parameters     
 k(s)        :  1.8500
 k(p)        :  2.2300
 k(d)        :  2.2300
 k(f)        :  2.0000
 kEN (H0ij)  : -2.0000
 D4 a1       :  0.5200
 D4 a2       :  5.0000
 D4 s6       :  1.0000
 D4 s8       :  2.7000
 D4 s9       :  5.0000
 alphaj      :  2.0000

 Solvent             : h2o
 Using internal parameter file: .param_gbsa2_h2o
 Gsolv ref. state (COSMO-RS): gsolv [1 M gas/solution]
 temperature (mdtemp)       :    298.150000000000     
 dielectric constant        :    80.2000000000000     
 rho                        :    1.00000000000000     
 mass                       :    18.0000000000000     
 surface tension            :    15.5689454083859     
 probe radius               :   0.975313790000000     
 vdW radii scaling          :    1.00000000000000     
 Gshift (Eh)                :   1.857443126794793E-003
 c1                         :    1.55243817000000     
 soset                      :   0.130326360000000     
 HB correction              :  T

            Z     q(EN)     CN     RAES       Cart. coordinates
     1  N   5.0   -0.19    3.33    1.99    29.85008    41.82703    -8.51649
     2  C   4.0    0.04    4.48    4.51    29.81550    42.35633    -5.91945
     3  C   4.0    0.14    3.50    3.11    28.46056    44.84830    -5.48484
     4  O   6.0   -0.31    1.28    1.80    28.72342    46.68165    -6.94364
     5  H   1.0    0.10    1.03    1.43    30.54953    43.20232    -9.65788
     6  H   1.0    0.06    1.06    1.44    28.79125    40.83592    -4.95907
     7  C   4.0    0.06    4.34    4.26    32.54196    42.45929    -5.13280
     8  O   6.0   -0.25    2.13    1.84    33.31680    39.92614    -4.84885
     9  C   4.0   -0.06    4.17    3.95    32.87693    44.10912    -2.84653
    10  H   1.0    0.05    1.05    1.44    33.62163    43.30817    -6.70155
    11  H   1.0    0.12    1.03    1.43    35.10647    39.93618    -4.47811
    12  H   1.0    0.06    1.01    1.43    34.70041    43.79786    -1.97133
    13  H   1.0    0.06    1.02    1.43    32.77141    46.07409    -3.41524
    14  H   1.0    0.05    1.02    1.43    31.38736    43.76111    -1.48893
    15  N   5.0   -0.14    3.47    2.06    26.87106    44.79807    -3.59523
    16  C   4.0    0.03    4.45    4.46    25.44699    47.03118    -2.79129
    17  C   4.0    0.15    3.44    3.09    25.99985    47.76484    -0.14642
    18  O   6.0   -0.31    1.31    1.80    25.87528    46.26332     1.56432
    19  C   4.0   -0.04    4.41    4.39    22.58313    46.46172    -2.94021
    20  C   4.0   -0.02    4.20    4.01    20.95843    48.74167    -2.46642
    21  C   4.0   -0.07    4.17    3.93    21.49530    50.73018    -4.43398
    22  C   4.0   -0.08    4.11    3.83    18.13410    48.00011    -2.79307
    23  H   1.0    0.11    1.09    1.44    26.61793    43.20190    -2.56852
    24  H   1.0    0.06    1.07    1.44    25.95978    48.53209    -4.11160
    25  H   1.0    0.04    1.03    1.43    22.18174    45.70701    -4.81692
    26  H   1.0    0.05    1.03    1.43    22.18174    44.97867    -1.55777
    27  H   1.0    0.05    1.05    1.44    21.25846    49.48907    -0.56485
    28  H   1.0    0.05    1.00    1.43    20.23183    52.33389    -4.17517
    29  H   1.0    0.05    1.00    1.43    23.40493    51.47532    -4.31589
    30  H   1.0    0.04    1.00    1.43    21.18962    49.95848    -6.31334
    31  H   1.0    0.05    1.00    1.43    16.92400    49.62962    -2.51006
    32  H   1.0    0.04    1.00    1.43    17.84179    47.26805    -4.68797
    33  H   1.0    0.04    1.00    1.43    17.60525    46.54788    -1.43683
    34  N   5.0   -0.13    3.46    2.05    26.77711    50.13261     0.37903
    35  C   4.0    0.04    4.43    4.44    27.32027    51.18735     2.86750
    36  C   4.0    0.15    3.40    3.08    24.84794    52.21534     4.03810
    37  O   6.0   -0.30    1.28    1.80    23.62879    53.76233     2.83565
    38  C   4.0   -0.03    4.31    4.21    29.37148    53.17136     2.64255
    39  C   4.0   -0.03    4.29    4.17    30.12649    53.89782     5.28115
    40  C   4.0    0.16    3.24    3.04    32.49328    55.56319     5.14356
    41  O   6.0   -0.32    1.29    1.80    32.48441    57.54108     4.02600
    42  N   5.0   -0.18    3.21    1.96    34.47951    54.75421     6.37107
    43  H   1.0    0.10    1.08    1.44    26.88115    51.40187    -1.05914
    44  H   1.0    0.07    1.06    1.44    27.98562    49.61247     4.04166
    45  H   1.0    0.05    1.03    1.43    30.96060    52.37004     1.60355
    46  H   1.0    0.07    1.03    1.43    28.66171    54.81724     1.62356
    47  H   1.0    0.06    1.04    1.43    28.63346    55.01911     6.15464
    48  H   1.0    0.05    1.03    1.43    30.49634    52.24058     6.44463
    49  H   1.0    0.10    1.05    1.44    34.43616    53.20537     7.49902
    50  H   1.0    0.12    1.06    1.44    36.05136    55.85284     6.49528
    51  N   5.0   -0.13    3.50    2.08    24.34794    51.46106     6.35925
    52  C   4.0    0.04    4.41    4.40    21.92926    51.82772     7.62342
    53  C   4.0    0.08    3.26    3.05    22.60554    53.05125    10.16427
    54  O   6.0   -0.31    1.21    1.80    24.38111    52.16393    11.41142
    55  C   4.0   -0.02    4.31    4.22    20.53336    49.36061     8.03948
    56  C   4.0   -0.04    4.19    3.98    19.63581    48.31593     5.47811
    57  C   4.0   -0.07    4.12    3.85    18.13863    49.80901     9.67321
    58  C   4.0   -0.08    3.99    3.60    19.08404    45.44458     5.47947
    59  H   1.0    0.11    1.11    1.45    25.48587    50.14367     7.18060
    60  H   1.0    0.06    1.06    1.44    20.82625    53.10560     6.42984
    61  H   1.0    0.05    1.05    1.44    21.79699    48.01247     8.95579
    62  H   1.0    0.04    1.03    1.43    17.94997    49.33954     4.88042
    63  H   1.0    0.06    1.03    1.43    21.09493    48.64990     4.05427
    64  H   1.0    0.04    1.00    1.43    16.98960    48.11592     9.72017
    65  H   1.0    0.05    1.00    1.43    18.63233    50.29627    11.60779
    66  H   1.0    0.04    1.00    1.43    17.03114    51.33460     8.86541
    67  H   1.0    0.04    1.00    1.43    18.33822    44.87333     3.65853
    68  H   1.0    0.05    1.00    1.43    20.82358    44.42037     5.84348
    69  H   1.0    0.04    1.00    1.43    17.70789    44.95792     6.92230
    70  O   6.0   -0.27    1.92    1.82    23.24165    59.06915     3.81844
    71  H   1.0    0.16    0.98    1.43    23.24270    58.75151     2.03765
    72  H   1.0    0.14    0.96    1.43    21.63367    59.88658     4.20934
    73  O   6.0   -0.31    1.95    1.82    34.86810    50.13309     9.68605
    74  H   1.0    0.14    0.97    1.43    36.59649    49.69941    10.03830
    75  H   1.0    0.14    0.97    1.43    34.06680    48.64130     9.03479
    76  O   6.0   -0.27    1.93    1.82    29.36648    61.08426     1.46451
    77  H   1.0    0.15    1.00    1.43    30.32862    59.87563     2.43998
    78  H   1.0    0.16    1.01    1.43    30.46928    61.68401     0.14075
    79  O   6.0   -0.28    1.93    1.82    24.89827    56.61605    -1.46451
    80  H   1.0    0.16    1.00    1.43    26.10690    55.65391    -2.43998
    81  H   1.0    0.16    1.01    1.43    24.29852    55.51325    -0.14075
    82  O   6.0   -0.29    1.93    1.82    19.23461    57.18479    -3.37095
    83  H   1.0    0.17    1.03    1.43    18.86932    56.61457    -1.66175
    84  H   1.0    0.15    0.97    1.43    19.40137    58.97882    -3.20216
    85  O   6.0   -0.31    1.96    1.82    36.69245    47.65118    -2.91656
    86  H   1.0    0.13    0.97    1.43    38.39397    47.63983    -2.27445
    87  H   1.0    0.13    0.97    1.43    36.22203    49.39591    -3.08194
    88  O   6.0   -0.31    1.96    1.82    38.33135    49.29008     2.91656
    89  H   1.0    0.13    0.97    1.43    38.34270    47.58856     2.27445
    90  H   1.0    0.13    0.97    1.43    36.58662    49.76050     3.08194
    91  O   6.0   -0.29    1.93    1.82    39.50538    54.29153    11.86285
    92  H   1.0    0.13    0.97    1.43    37.95937    53.76888    12.66501
    93  H   1.0    0.14    0.98    1.43    38.98298    55.38755    10.49277
    94  N   5.0   -0.18    3.21    1.96    32.02813    55.92043   -17.35437
    95  C   4.0    0.03    4.20    4.00    32.73959    56.36211   -14.75987
    96  C   4.0    0.08    3.24    3.04    35.56771    55.78014   -14.48529
    97  O   6.0   -0.26    1.12    1.80    36.63705    54.08148   -15.67344
    98  H   1.0    0.10    1.03    1.43    32.09052    54.08379   -17.90301
    99  H   1.0    0.04    1.05    1.44    32.44746    58.36377   -14.34509
   100  C   4.0   -0.03    4.32    4.24    31.37262    54.61387   -12.86084
   101  C   4.0   -0.02    3.52    3.12    29.11605    55.61882   -11.49058
   102  C   4.0   -0.04    3.48    3.11    28.93825    57.96922   -10.34328
   103  C   4.0   -0.04    3.53    3.13    27.08108    54.01048   -11.19166
   104  C   4.0   -0.02    3.45    3.09    26.73105    58.77956    -9.22932
   105  C   4.0   -0.04    3.44    3.09    24.87248    54.76456   -10.00843
   106  C   4.0    0.08    3.43    3.09    24.61425    57.21739    -9.13845
   107  O   6.0   -0.23    2.10    1.84    22.36859    58.17874    -8.26862
   108  H   1.0    0.05    1.04    1.43    30.83995    52.90172   -13.87635
   109  H   1.0    0.05    1.04    1.43    32.77794    54.06277   -11.44553
   110  H   1.0    0.05    1.03    1.43    30.56259    59.19573   -10.31437
   111  H   1.0    0.05    1.05    1.44    27.29047    52.13989   -11.96249
   112  H   1.0    0.07    1.03    1.43    26.63864    60.59106    -8.29887
   113  H   1.0    0.05    1.03    1.43    23.30849    53.47331    -9.78494
   114  H   1.0    0.13    1.03    1.43    21.36649    56.90014    -7.44552
   115  N   5.0   -0.19    3.21    1.96    30.06210    53.95440    17.35437
   116  C   4.0    0.03    4.30    4.21    29.62042    53.24294    14.75987
   117  C   4.0    0.15    3.43    3.09    30.20239    50.41482    14.48529
   118  O   6.0   -0.28    1.22    1.80    31.90105    49.34549    15.67344
   119  H   1.0    0.10    1.03    1.43    31.89874    53.89201    17.90301
   120  H   1.0    0.06    1.06    1.44    27.61876    53.53507    14.34509
   121  C   4.0   -0.03    4.33    4.25    31.36866    54.60991    12.86084
   122  C   4.0   -0.01    3.52    3.12    30.36371    56.86649    11.49058
   123  C   4.0   -0.04    3.48    3.11    28.01331    57.04428    10.34328
   124  C   4.0   -0.03    3.51    3.12    31.97205    58.90145    11.19166
   125  C   4.0   -0.02    3.45    3.09    27.20297    59.25148     9.22932
   126  C   4.0   -0.03    3.43    3.09    31.21797    61.11005    10.00843
   127  C   4.0    0.08    3.43    3.09    28.76514    61.36828     9.13845
   128  O   6.0   -0.22    2.10    1.84    27.80379    63.61394     8.26862
   129  H   1.0    0.05    1.04    1.43    33.08081    55.14258    13.87635
   130  H   1.0    0.06    1.05    1.44    31.91976    53.20459    11.44553
   131  H   1.0    0.07    1.05    1.44    26.78680    55.41994    10.31437
   132  H   1.0    0.06    1.04    1.43    33.84264    58.69206    11.96249
   133  H   1.0    0.08    1.03    1.43    25.39147    59.34390     8.29887
   134  H   1.0    0.06    1.03    1.43    32.50922    62.67405     9.78494
   135  H   1.0    0.13    1.03    1.43    29.08239    64.61604     7.44552
   136  N   5.0   -0.13    3.51    2.08    28.50270    49.18833    13.01248
   137  C   4.0    0.04    4.39    4.37    28.75703    46.47564    12.50403
   138  C   4.0    0.14    3.43    3.09    28.72038    46.09616     9.63530
   139  O   6.0   -0.31    1.34    1.80    27.67011    47.70856     8.29565
   140  C   4.0   -0.03    4.37    4.33    26.46963    45.14461    13.63299
   141  C   4.0   -0.00    3.59    3.16    26.20581    45.48965    16.40098
   142  C   4.0   -0.03    3.46    3.10    24.81272    47.50095    17.37939
   143  C   4.0   -0.03    3.48    3.10    27.45641    43.84870    18.01887
   144  C   4.0   -0.03    3.39    3.08    24.76421    47.85246    19.95288
   145  C   4.0   -0.03    3.37    3.07    27.47889    44.30543    20.60829
   146  C   4.0   -0.03    3.38    3.07    26.12724    46.29911    21.56303
   147  H   1.0    0.12    1.10    1.44    27.11296    50.11740    12.07424
   148  H   1.0    0.06    1.05    1.44    30.52055    45.81766    13.35172
   149  H   1.0    0.05    1.04    1.43    24.79690    45.88896    12.66996
   150  H   1.0    0.05    1.03    1.43    26.58788    43.12836    13.18042
   151  H   1.0    0.06    1.03    1.43    23.82873    48.76688    16.12238
   152  H   1.0    0.06    1.03    1.43    28.51593    42.29512    17.22822
   153  H   1.0    0.06    1.03    1.43    23.72473    49.43085    20.71724
   154  H   1.0    0.06    1.03    1.43    28.55719    43.09205    21.84482
   155  H   1.0    0.06    1.03    1.43    26.19493    46.70087    23.56396
   156  N   5.0   -0.13    3.55    2.12    29.85008    44.15550     8.51649
   157  C   4.0    0.05    4.58    4.64    29.81550    43.62620     5.91945
   158  C   4.0    0.14    3.50    3.11    28.46056    41.13423     5.48484
   159  O   6.0   -0.29    1.23    1.80    28.72342    39.30088     6.94364
   160  H   1.0    0.09    1.08    1.44    30.54953    42.78021     9.65788
   161  H   1.0    0.07    1.08    1.44    28.79125    45.14662     4.95907
   162  C   4.0    0.06    4.33    4.25    32.54196    43.52324     5.13280
   163  O   6.0   -0.25    2.13    1.84    33.31680    46.05639     4.84885
   164  C   4.0   -0.07    4.15    3.90    32.87693    41.87341     2.84653
   165  H   1.0    0.05    1.05    1.44    33.62163    42.67436     6.70155
   166  H   1.0    0.12    1.03    1.43    35.10647    46.04635     4.47811
   167  H   1.0    0.05    1.00    1.43    34.70041    42.18467     1.97133
   168  H   1.0    0.06    1.01    1.43    32.77141    39.90844     3.41524
   169  H   1.0    0.05    1.02    1.43    31.38736    42.22142     1.48893
   170  N   5.0   -0.14    3.47    2.06    26.87106    41.18446     3.59523
   171  C   4.0    0.04    4.36    4.31    25.44699    38.95135     2.79129
   172  C   4.0    0.08    3.27    3.05    25.99985    38.21770     0.14642
   173  O   6.0   -0.32    1.19    1.80    25.87528    39.71921    -1.56432
   174  C   4.0   -0.04    4.41    4.39    22.58313    39.52081     2.94021
   175  C   4.0   -0.03    4.20    4.01    20.95843    37.24086     2.46642
   176  C   4.0   -0.07    4.17    3.93    21.49530    35.25235     4.43398
   177  C   4.0   -0.08    4.11    3.83    18.13410    37.98242     2.79307
   178  H   1.0    0.11    1.09    1.44    26.61793    42.78063     2.56852
   179  H   1.0    0.06    1.07    1.44    25.95978    37.45044     4.11160
   180  H   1.0    0.04    1.03    1.43    22.18174    40.27552     4.81692
   181  H   1.0    0.05    1.03    1.43    22.18174    41.00386     1.55777
   182  H   1.0    0.04    1.05    1.44    21.25846    36.49346     0.56485
   183  H   1.0    0.05    1.00    1.43    20.23183    33.64864     4.17517
   184  H   1.0    0.05    1.00    1.43    23.40493    34.50721     4.31589
   185  H   1.0    0.05    1.00    1.43    21.18962    36.02405     6.31334
   186  H   1.0    0.04    1.00    1.43    16.92400    36.35291     2.51006
   187  H   1.0    0.04    1.00    1.43    17.84179    38.71448     4.68797
   188  H   1.0    0.04    1.00    1.43    17.60525    39.43465     1.43683
   189  N   5.0   -0.18    3.25    1.97    24.34794    34.52147    -6.35925
   190  C   4.0    0.03    4.32    4.24    21.92926    34.15481    -7.62342
   191  C   4.0    0.08    3.25    3.04    22.60554    32.93128   -10.16427
   192  O   6.0   -0.27    1.14    1.80    24.38111    33.81860   -11.41142
   193  C   4.0   -0.02    4.31    4.22    20.53336    36.62192    -8.03948
   194  C   4.0   -0.05    4.19    3.98    19.63581    37.66660    -5.47811
   195  C   4.0   -0.08    4.13    3.85    18.13863    36.17352    -9.67321
   196  C   4.0   -0.08    3.99    3.60    19.08404    40.53795    -5.47947
   197  H   1.0    0.10    1.02    1.43    25.48587    35.83886    -7.18060
   198  H   1.0    0.04    1.05    1.44    20.82625    32.87693    -6.42984
   199  H   1.0    0.05    1.05    1.44    21.79699    37.97006    -8.95579
   200  H   1.0    0.04    1.03    1.43    17.94997    36.64299    -4.88042
   201  H   1.0    0.04    1.03    1.43    21.09493    37.33263    -4.05427
   202  H   1.0    0.03    1.00    1.43    16.98960    37.86661    -9.72017
   203  H   1.0    0.05    1.00    1.43    18.63233    35.68626   -11.60779
   204  H   1.0    0.04    1.00    1.43    17.03114    34.64793    -8.86541
   205  H   1.0    0.04    1.00    1.43    18.33822    41.10920    -3.65853
   206  H   1.0    0.04    1.00    1.43    20.82358    41.56216    -5.84348
   207  H   1.0    0.04    1.00    1.43    17.70789    41.02461    -6.92230
   208  N   5.0   -0.21    3.19    1.95    15.32144    39.99464   -14.48287
   209  C   4.0    0.03    4.20    4.00    16.76298    42.04858   -13.45843
   210  C   4.0    0.08    3.26    3.05    15.59107    44.58495   -13.87661
   211  O   6.0   -0.31    1.17    1.80    15.24760    46.19239   -12.20298
   212  C   4.0   -0.04    4.27    4.13    19.50686    42.07258   -14.56151
   213  C   4.0   -0.01    3.51    3.12    20.99704    44.50451   -13.95690
   214  C   4.0   -0.03    3.51    3.12    21.96495    45.06361   -11.58018
   215  C   4.0   -0.03    3.44    3.09    21.45440    46.26485   -15.83483
   216  C   4.0   -0.04    3.34    3.06    23.24060    47.23795   -10.87986
   217  C   4.0   -0.04    3.39    3.08    22.69934    48.51787   -15.19797
   218  C   4.0   -0.04    3.39    3.08    23.48799    49.03466   -12.74539
   219  H   1.0    0.09    1.02    1.43    16.06707    38.95330   -15.91828
   220  H   1.0    0.04    1.06    1.44    16.87956    41.84230   -11.39205
   221  H   1.0    0.05    1.02    1.43    20.49410    40.42292   -13.83590
   222  H   1.0    0.05    1.03    1.43    19.33679    41.91867   -16.60773
   223  H   1.0    0.05    1.03    1.43    21.68045    43.63259   -10.13204
   224  H   1.0    0.05    1.03    1.43    20.78163    45.98106   -17.73719
   225  H   1.0    0.06    1.03    1.43    23.98523    47.47858    -9.00688
   226  H   1.0    0.05    1.03    1.43    22.94963    49.93583   -16.63950
   227  H   1.0    0.05    1.07    1.44    24.35227    50.82662   -12.37136
   228  N   5.0   -0.20    3.24    1.97     9.94744    45.54966    -9.28255
   229  C   4.0    0.04    4.34    4.26    10.72294    46.07495    -6.79643
   230  C   4.0    0.15    3.43    3.09    11.86036    48.74221    -6.53016
   231  O   6.0   -0.32    1.27    1.80    11.61882    50.00244    -4.59901
   232  C   4.0   -0.04    4.27    4.15    12.64690    44.14345    -5.70920
   233  C   4.0   -0.02    3.50    3.11    11.32175    41.71954    -4.85360
   234  C   4.0   -0.04    3.52    3.12     9.25152    41.75136    -3.20090
   235  C   4.0   -0.04    3.50    3.12    11.89916    39.38177    -5.75340
   236  C   4.0   -0.03    3.41    3.08     7.92410    39.62726    -2.56559
   237  C   4.0   -0.04    3.40    3.08    10.71884    37.14951    -4.92218
   238  C   4.0   -0.03    3.38    3.07     8.57867    37.31409    -3.47303
   239  H   1.0    0.09    1.02    1.43    10.80432    44.15391   -10.28825
   240  H   1.0    0.05    1.06    1.44     9.03876    46.10402    -5.57594
   241  H   1.0    0.04    1.03    1.43    14.04872    43.73521    -7.15692
   242  H   1.0    0.04    1.03    1.43    13.55701    45.02002    -4.08467
   243  H   1.0    0.05    1.03    1.43     8.68266    43.54402    -2.39219
   244  H   1.0    0.04    1.03    1.43    13.45735    39.19054    -7.06288
   245  H   1.0    0.06    1.03    1.43     6.28793    39.82984    -1.35715
   246  H   1.0    0.05    1.03    1.43    11.31425    35.38184    -5.72506
   247  H   1.0    0.06    1.03    1.43     7.51675    35.65679    -2.94549
   248  N   5.0   -0.14    3.47    2.06    13.27482    49.43829    -8.45668
   249  C   4.0    0.03    4.34    4.27    14.49205    51.97177    -8.40819
   250  C   4.0    0.09    3.23    3.04    12.40793    54.02824    -8.34143
   251  O   6.0   -0.28    1.10    1.80    12.59383    55.88541    -6.89695
   252  H   1.0    0.11    1.10    1.44    13.56950    48.34830   -10.00156
   253  H   1.0    0.06    1.05    1.44    15.55004    52.14797    -6.64338
   254  C   4.0   -0.04    4.30    4.21    16.14184    52.23913   -10.73486
   255  C   4.0   -0.04    4.24    4.08    17.60008    54.71149   -10.60095
   256  C   4.0   -0.00    4.24    4.09    16.87618    56.41692   -12.74997
   257  N   5.0   -0.14    3.45    2.05    17.51995    55.19215   -15.10920
   258  C   4.0    0.09    3.37    3.07    16.00384    55.10437   -17.12646
   259  N   5.0   -0.18    3.22    1.96    13.50856    54.79254   -16.90957
   260  N   5.0   -0.17    3.22    1.96    17.11286    55.43830   -19.37805
   261  H   1.0    0.05    1.03    1.43    17.40960    50.61555   -10.80955
   262  H   1.0    0.05    1.04    1.43    14.94117    52.16255   -12.40831
   263  H   1.0    0.06    1.04    1.43    17.23078    55.68583    -8.82457
   264  H   1.0    0.04    1.03    1.43    19.61934    54.34429   -10.72994
   265  H   1.0    0.05    1.03    1.43    14.85835    56.81031   -12.69405
   266  H   1.0    0.05    1.02    1.43    17.84331    58.24014   -12.59805
   267  H   1.0    0.08    1.08    1.44    19.38960    55.24652   -15.50885
   268  H   1.0    0.09    1.03    1.43    12.58557    55.07744   -15.27462
   269  H   1.0    0.09    1.03    1.43    12.49144    54.60323   -18.50669
   270  H   1.0    0.08    1.04    1.43    18.94810    54.90852   -19.47338
   271  H   1.0    0.09    1.02    1.43    16.06413    54.65585   -20.85811
   272  N   5.0   -0.19    3.20    1.96     9.40011    54.14037    -1.78350
   273  C   4.0    0.04    4.23    4.06    11.10708    55.22720     0.11416
   274  C   4.0    0.10    3.25    3.04    11.30735    58.05171    -0.18699
   275  O   6.0   -0.25    1.10    1.80    11.24680    59.63200     1.59760
   276  C   4.0   -0.03    4.38    4.35    13.72494    54.12487    -0.15139
   277  C   4.0    0.16    3.25    3.04    15.60892    54.87361     1.84831
   278  O   6.0   -0.29    1.28    1.80    17.61420    55.92112     1.29887
   279  N   5.0   -0.18    3.25    1.97    14.83772    54.40984     4.09288
   280  H   1.0    0.12    1.05    1.44    10.11366    52.89928    -3.06118
   281  H   1.0    0.05    1.05    1.44    10.26695    54.88195     1.97983
   282  H   1.0    0.05    1.03    1.43    13.54953    52.06077    -0.14511
   283  H   1.0    0.07    1.03    1.43    14.48129    54.66244    -1.99872
   284  H   1.0    0.10    1.03    1.43    15.72888    55.13768     5.63871
   285  H   1.0    0.08    1.05    1.44    13.18127    53.50170     4.34734
   286  N   5.0   -0.18    3.33    1.99    44.15550    56.13245     8.51649
   287  C   4.0    0.04    4.48    4.51    43.62620    56.16703     5.91945
   288  C   4.0    0.14    3.50    3.11    41.13423    57.52197     5.48484
   289  O   6.0   -0.31    1.29    1.80    39.30088    57.25911     6.94364
   290  H   1.0    0.11    1.04    1.44    42.78021    55.43300     9.65788
   291  H   1.0    0.06    1.06    1.44    45.14662    57.19128     4.95907
   292  C   4.0    0.06    4.34    4.26    43.52324    53.44057     5.13280
   293  O   6.0   -0.24    2.13    1.84    46.05639    52.66573     4.84885
   294  C   4.0   -0.06    4.17    3.93    41.87341    53.10560     2.84653
   295  H   1.0    0.05    1.05    1.44    42.67436    52.36090     6.70155
   296  H   1.0    0.13    1.03    1.43    46.04635    50.87606     4.47811
   297  H   1.0    0.06    1.01    1.43    42.18467    51.28212     1.97133
   298  H   1.0    0.06    1.02    1.43    39.90844    53.21112     3.41524
   299  H   1.0    0.06    1.01    1.43    42.22142    54.59517     1.48893
   300  N   5.0   -0.14    3.46    2.06    41.18446    59.11147     3.59523
   301  C   4.0    0.03    4.45    4.46    38.95135    60.53554     2.79129
   302  C   4.0    0.15    3.44    3.09    38.21770    59.98268     0.14642
   303  O   6.0   -0.29    1.27    1.80    39.71921    60.10725    -1.56432
   304  C   4.0   -0.04    4.41    4.39    39.52081    63.39940     2.94021
   305  C   4.0   -0.02    4.20    4.01    37.24086    65.02410     2.46642
   306  C   4.0   -0.07    4.17    3.93    35.25235    64.48723     4.43398
   307  C   4.0   -0.07    4.11    3.83    37.98242    67.84843     2.79307
   308  H   1.0    0.09    1.07    1.44    42.78063    59.36460     2.56852
   309  H   1.0    0.06    1.07    1.44    37.45044    60.02276     4.11160
   310  H   1.0    0.05    1.03    1.43    40.27552    63.80079     4.81692
   311  H   1.0    0.06    1.03    1.43    41.00386    63.80079     1.55777
   312  H   1.0    0.06    1.05    1.44    36.49346    64.72407     0.56485
   313  H   1.0    0.05    1.00    1.43    33.64864    65.75070     4.17517
   314  H   1.0    0.05    1.00    1.43    34.50721    62.57760     4.31589
   315  H   1.0    0.05    1.00    1.43    36.02405    64.79292     6.31334
   316  H   1.0    0.05    1.00    1.43    36.35291    69.05853     2.51006
   317  H   1.0    0.05    1.00    1.43    38.71448    68.14074     4.68797
   318  H   1.0    0.05    1.00    1.43    39.43465    68.37728     1.43683
   319  N   5.0   -0.13    3.46    2.05    35.84992    59.20543    -0.37903
   320  C   4.0    0.04    4.34    4.26    34.79518    58.66226    -2.86750
   321  C   4.0    0.08    3.20    3.04    33.76719    61.13459    -4.03810
   322  O   6.0   -0.29    1.18    1.80    32.22020    62.35375    -2.83565
   323  C   4.0   -0.03    4.31    4.21    32.81117    56.61105    -2.64255
   324  C   4.0   -0.04    4.29    4.17    32.08471    55.85604    -5.28115
   325  C   4.0    0.16    3.24    3.04    30.41934    53.48925    -5.14356
   326  O   6.0   -0.32    1.29    1.80    28.44145    53.49812    -4.02600
   327  N   5.0   -0.19    3.21    1.96    31.22832    51.50302    -6.37107
   328  H   1.0    0.10    1.08    1.44    34.58066    59.10138     1.05914
   329  H   1.0    0.05    1.06    1.44    36.37007    57.99691    -4.04166
   330  H   1.0    0.05    1.03    1.43    33.61249    55.02193    -1.60355
   331  H   1.0    0.07    1.03    1.43    31.16529    57.32083    -1.62356
   332  H   1.0    0.05    1.04    1.43    30.96342    57.34907    -6.15464
   333  H   1.0    0.04    1.03    1.43    33.74195    55.48619    -6.44463
   334  H   1.0    0.08    1.03    1.43    32.77716    51.54637    -7.49902
   335  H   1.0    0.12    1.06    1.44    30.12969    49.93118    -6.49528
   336  H   1.0    0.11    1.10    1.44    30.80874    40.45170    -8.80286
   337  H   1.0    0.05    1.04    1.43    21.62073    54.53827    10.78876
   338  H   1.0    0.10    1.07    1.44    30.43212    56.45247   -17.60384
   339  H   1.0    0.06    1.05    1.44    36.63131    56.79855   -13.30095
   340  H   1.0    0.10    1.07    1.44    29.53006    55.55042    17.60384
   341  H   1.0    0.05    1.05    1.44    26.49114    36.43822    -0.25751
   342  H   1.0    0.09    1.07    1.44    24.08051    35.02871    -4.75808
   343  H   1.0    0.06    1.04    1.43    21.62073    31.44426   -10.78876
   344  H   1.0    0.09    1.08    1.44    15.00012    38.85982   -13.25751
   345  H   1.0    0.06    1.05    1.44    15.01950    45.08815   -15.60611
   346  H   1.0    0.10    1.08    1.44     8.30637    45.10307    -9.28297
   347  H   1.0    0.06    1.04    1.43    10.89431    53.87627    -9.46256
   348  H   1.0    0.10    1.07    1.44     8.15368    53.28608    -1.00301
   349  H   1.0    0.08    1.05    1.44    11.50585    58.80673    -1.90793
   350  H   1.0    0.11    1.10    1.44    45.53083    55.17379     8.80286
   351  H   1.0    0.06    1.04    1.43    34.37084    61.69750    -5.73804

  Z AO/shell   Hii/eV     exponent
  1     Wed Apr 25 08:07:45 CEST 2018   EN: 2.200 GM2: 0.406  GM3: 0.0800  RAES: 1.40
     1s    -10.707211    1.230000
  6     Wed Apr 25 08:07:45 CEST 2018   EN: 2.550 GM2: 0.538  GM3: 0.1500  RAES: 3.00
     2s    -13.970922    2.096432
     2p    -10.063292    1.800000
  7     Wed Apr 25 08:07:45 CEST 2018   EN: 3.040 GM2: 0.461  GM3:-0.0640  RAES: 1.90
     2s    -16.686243    2.339881
     2p    -12.523956    2.014332
  8     Wed Apr 25 08:07:45 CEST 2018   EN: 3.440 GM2: 0.452  GM3:-0.0517  RAES: 1.80
     2s    -20.229985    2.439742
     2p    -15.503117    2.137023
 no old-style atom pair restraining (fixing) potential

molecular fragmentation (1/2 indicates fragments):
111111111111111111111111111111111111111111111111111111111111111111111222
222222222222222222222222222222222222222222222222222222222222222222222222
222222222222222222222222222222222222222222222222222222222222222222222222
222222222222222222222222222222222222222222222222222222222222222222222222
222222222222222222222222222222222222222222222221122222222222222
# atoms in fragment 1/2:    71   280
 fragment masses (1/2) :      457.57     1867.23
CMA distance (Bohr)    :   2.761
constraining FC (au)   :  0.0500
           ------------------------------------------------- 
          |        Self-Consistent Charge Iterations        |
           ------------------------------------------------- 

 Ncao       : 840
 Nao        : 840
 Nshell     : 514
 Nel        : 928
 T(el)      :   500.0
 intcut     :    35.0
 scfconv/Eh :  0.100E-06
   qconv/e  :  0.100E-04
 intneglect :  0.100E-08
 broydamp   :      0.400
 iter      E             dE          RMSdq      gap      omega  full diag
   1   -531.4755783 -0.531476E+03  0.464E+00    2.88       0.0  T
   2   -532.6305437 -0.115497E+01  0.224E+00    1.73       1.0  T
   3   -532.7008546 -0.703109E-01  0.122E+00    1.87       1.0  T
   4   -532.7988068 -0.979523E-01  0.276E-01    1.23       1.0  T
   5   -532.8034482 -0.464137E-02  0.123E-01    1.45       1.0  T
   6   -532.8049261 -0.147788E-02  0.438E-02    1.44       1.0  T
   7   -532.8050843 -0.158214E-03  0.216E-02    1.43       1.0  T
   8   -532.8051053 -0.209885E-04  0.105E-02    1.43       1.0  T
   9   -532.8051155 -0.102328E-04  0.417E-03    1.43       1.3  T
  10   -532.8051171 -0.157524E-05  0.205E-03    1.43       2.6  T
  11   -532.8051174 -0.269245E-06  0.100E-03    1.43       5.3  T
  12   -532.8051175 -0.799644E-07  0.461E-04    1.43      11.6  T
  13   -532.8051175 -0.232729E-07  0.211E-04    1.43      25.3  T
  14   -532.8051175 -0.268108E-08  0.107E-04    1.43      49.9  T
  15   -532.8051175 -0.986233E-09  0.418E-05    1.43     127.6  T
  16   -532.8051175 -0.147679E-09  0.171E-05    1.43     312.4  T
speedup  9.37
cpu  time for SCC   16.66 s
wall time for SCC    1.78 s

   *** convergence criteria satisfied after 16 iterations ***

          eigenvalues
 #    :         452        453        454        455        456        457        458        459
 occ. :        2.000      2.000      2.000      2.000      2.000      2.000      2.000      2.000
 eps  :       -10.739    -10.647    -10.567    -10.351    -10.242    -10.167    -10.066     -9.948
 #    :         460        461        462        463        464        465        466        467
 occ. :        2.000      2.000      2.000      2.000      2.000      0.000      0.000      0.000
 eps  :        -9.872     -9.863     -9.807     -9.775     -9.739     -8.307     -8.263     -8.245
 #    :         468        469        470        471        472        473        474        475
 occ. :        0.000      0.000      0.000      0.000      0.000      0.000      0.000      0.000
 eps  :        -7.933     -7.885     -7.857     -7.782     -7.744     -6.777     -6.624     -6.361


   #   Z            q   n(s)   n(p)   n(d)      C6AA      α(0)
   1   7 N     -0.389  1.302  4.087  0.000    30.068     8.144
   2   6 C      0.034  1.048  2.917  0.000    19.993     6.366
   3   6 C      0.265  1.045  2.689  0.000    22.525     7.772
   4   8 O     -0.499  1.742  4.757  0.000    23.766     6.536
   5   1 H      0.164  0.836  0.000  0.000     1.310     1.793
   6   1 H      0.054  0.946  0.000  0.000     2.265     2.354
   7   6 C      0.117  1.042  2.840  0.000    18.719     6.170
   8   8 O     -0.498  1.734  4.764  0.000    22.852     6.453
   9   6 C     -0.144  1.046  3.098  0.000    23.332     6.887
  10   1 H      0.015  0.985  0.000  0.000     2.811     2.622
  11   1 H      0.334  0.666  0.000  0.000     0.628     1.244
  12   1 H      0.067  0.933  0.000  0.000     2.113     2.273
  13   1 H      0.064  0.936  0.000  0.000     2.149     2.292
  14   1 H      0.037  0.963  0.000  0.000     2.488     2.467
  15   7 N     -0.165  1.247  3.918  0.000    24.564     7.361
  16   6 C      0.015  1.056  2.929  0.000    20.322     6.419
  17   6 C      0.276  1.038  2.686  0.000    22.337     7.740
  18   8 O     -0.486  1.719  4.767  0.000    23.477     6.496
  19   6 C     -0.068  1.058  3.010  0.000    21.781     6.641
  20   6 C     -0.007  1.049  2.958  0.000    20.661     6.465
  21   6 C     -0.125  1.039  3.086  0.000    22.930     6.825
  22   6 C     -0.115  1.045  3.070  0.000    22.752     6.800
  23   1 H      0.219  0.781  0.000  0.000     1.016     1.579
  24   1 H      0.084  0.916  0.000  0.000     1.938     2.177
  25   1 H      0.064  0.936  0.000  0.000     2.147     2.291
  26   1 H      0.050  0.950  0.000  0.000     2.315     2.379
  27   1 H      0.019  0.981  0.000  0.000     2.756     2.596
  28   1 H      0.055  0.945  0.000  0.000     2.253     2.347
  29   1 H      0.036  0.964  0.000  0.000     2.498     2.472
  30   1 H      0.055  0.945  0.000  0.000     2.256     2.349
  31   1 H      0.042  0.958  0.000  0.000     2.422     2.433
  32   1 H      0.054  0.946  0.000  0.000     2.270     2.356
  33   1 H      0.031  0.969  0.000  0.000     2.568     2.506
  34   7 N     -0.184  1.251  3.933  0.000    24.994     7.425
  35   6 C      0.019  1.067  2.913  0.000    20.252     6.408
  36   6 C      0.275  1.037  2.689  0.000    22.357     7.742
  37   8 O     -0.468  1.743  4.725  0.000    23.079     6.441
  38   6 C     -0.060  1.046  3.014  0.000    21.649     6.622
  39   6 C     -0.102  1.055  3.047  0.000    22.438     6.742
  40   6 C      0.293  1.032  2.675  0.000    22.022     7.684
  41   8 O     -0.507  1.725  4.782  0.000    23.945     6.561
  42   7 N     -0.280  1.267  4.013  0.000    27.235     7.751
  43   1 H      0.212  0.788  0.000  0.000     1.047     1.603
  44   1 H      0.075  0.925  0.000  0.000     2.032     2.229
  45   1 H      0.055  0.945  0.000  0.000     2.264     2.353
  46   1 H      0.076  0.924  0.000  0.000     2.019     2.222
  47   1 H      0.063  0.937  0.000  0.000     2.162     2.299
  48   1 H      0.057  0.943  0.000  0.000     2.233     2.337
  49   1 H      0.226  0.774  0.000  0.000     0.984     1.554
  50   1 H      0.226  0.774  0.000  0.000     0.983     1.553
  51   7 N     -0.178  1.252  3.927  0.000    24.862     7.405
  52   6 C      0.027  1.061  2.912  0.000    20.116     6.386
  53   6 C      0.200  1.094  2.706  0.000    23.740     7.980
  54   8 O     -0.355  1.750  4.606  0.000    20.807     6.116
  55   6 C     -0.021  1.066  2.955  0.000    20.904     6.503
  56   6 C     -0.062  1.053  3.009  0.000    21.694     6.631
  57   6 C     -0.127  1.044  3.082  0.000    22.987     6.836
  58   6 C     -0.113  1.040  3.073  0.000    22.727     6.799
  59   1 H      0.237  0.763  0.000  0.000     0.935     1.515
  60   1 H      0.086  0.914  0.000  0.000     1.919     2.166
  61   1 H      0.055  0.945  0.000  0.000     2.264     2.353
  62   1 H      0.048  0.952  0.000  0.000     2.345     2.395
  63   1 H      0.031  0.969  0.000  0.000     2.568     2.506
  64   1 H      0.070  0.930  0.000  0.000     2.086     2.258
  65   1 H      0.039  0.961  0.000  0.000     2.462     2.454
  66   1 H      0.053  0.947  0.000  0.000     2.286     2.365
  67   1 H      0.049  0.951  0.000  0.000     2.336     2.390
  68   1 H      0.040  0.960  0.000  0.000     2.445     2.445
  69   1 H      0.046  0.954  0.000  0.000     2.364     2.404
  70   8 O     -0.625  1.762  4.863  0.000    25.795     6.855
  71   1 H      0.312  0.688  0.000  0.000     0.686     1.301
  72   1 H      0.311  0.689  0.000  0.000     0.690     1.305
  73   8 O     -0.616  1.751  4.866  0.000    25.584     6.827
  74   1 H      0.331  0.669  0.000  0.000     0.636     1.252
  75   1 H      0.305  0.695  0.000  0.000     0.707     1.320
  76   8 O     -0.651  1.768  4.883  0.000    26.448     6.941
  77   1 H      0.300  0.700  0.000  0.000     0.721     1.334
  78   1 H      0.311  0.689  0.000  0.000     0.689     1.304
  79   8 O     -0.647  1.760  4.886  0.000    26.332     6.926
  80   1 H      0.301  0.699  0.000  0.000     0.717     1.330
  81   1 H      0.308  0.692  0.000  0.000     0.698     1.312
  82   8 O     -0.638  1.747  4.891  0.000    26.122     6.898
  83   1 H      0.307  0.693  0.000  0.000     0.701     1.316
  84   1 H      0.299  0.701  0.000  0.000     0.723     1.336
  85   8 O     -0.624  1.761  4.863  0.000    25.767     6.851
  86   1 H      0.318  0.682  0.000  0.000     0.669     1.285
  87   1 H      0.307  0.693  0.000  0.000     0.700     1.314
  88   8 O     -0.615  1.762  4.853  0.000    25.544     6.821
  89   1 H      0.312  0.688  0.000  0.000     0.687     1.302
  90   1 H      0.307  0.693  0.000  0.000     0.701     1.315
  91   8 O     -0.632  1.761  4.871  0.000    25.963     6.877
  92   1 H      0.310  0.690  0.000  0.000     0.691     1.306
  93   1 H      0.315  0.685  0.000  0.000     0.678     1.293
  94   7 N     -0.387  1.327  4.060  0.000    30.008     8.136
  95   6 C      0.038  1.056  2.905  0.000    19.950     6.363
  96   6 C      0.195  1.092  2.713  0.000    23.839     7.997
  97   8 O     -0.383  1.766  4.617  0.000    21.336     6.193
  98   1 H      0.166  0.834  0.000  0.000     1.300     1.786
  99   1 H      0.065  0.935  0.000  0.000     2.141     2.288
 100   6 C     -0.072  1.058  3.014  0.000    21.869     6.656
 101   6 C     -0.005  1.074  2.932  0.000    28.151     8.703
 102   6 C     -0.046  1.076  2.970  0.000    29.155     8.855
 103   6 C     -0.052  1.083  2.968  0.000    29.280     8.875
 104   6 C     -0.057  1.076  2.981  0.000    29.407     8.893
 105   6 C     -0.073  1.078  2.995  0.000    29.823     8.955
 106   6 C      0.148  1.045  2.807  0.000    24.787     8.159
 107   8 O     -0.426  1.711  4.715  0.000    21.354     6.238
 108   1 H      0.068  0.932  0.000  0.000     2.104     2.268
 109   1 H      0.040  0.960  0.000  0.000     2.445     2.445
 110   1 H      0.031  0.969  0.000  0.000     2.566     2.505
 111   1 H      0.061  0.939  0.000  0.000     2.193     2.316
 112   1 H      0.040  0.960  0.000  0.000     2.452     2.449
 113   1 H      0.063  0.937  0.000  0.000     2.160     2.298
 114   1 H      0.334  0.666  0.000  0.000     0.627     1.243
 115   7 N     -0.388  1.325  4.062  0.000    30.031     8.139
 116   6 C      0.028  1.060  2.912  0.000    20.121     6.389
 117   6 C      0.272  1.053  2.675  0.000    22.401     7.751
 118   8 O     -0.499  1.756  4.744  0.000    23.772     6.537
 119   1 H      0.157  0.843  0.000  0.000     1.355     1.823
 120   1 H      0.057  0.943  0.000  0.000     2.234     2.337
 121   6 C     -0.078  1.058  3.020  0.000    21.978     6.672
 122   6 C     -0.002  1.077  2.925  0.000    28.082     8.692
 123   6 C     -0.048  1.077  2.971  0.000    29.196     8.861
 124   6 C     -0.048  1.082  2.966  0.000    29.194     8.862
 125   6 C     -0.057  1.077  2.980  0.000    29.418     8.895
 126   6 C     -0.070  1.078  2.992  0.000    29.747     8.944
 127   6 C      0.145  1.044  2.810  0.000    24.831     8.167
 128   8 O     -0.441  1.717  4.724  0.000    21.654     6.282
 129   1 H      0.047  0.953  0.000  0.000     2.362     2.403
 130   1 H      0.056  0.944  0.000  0.000     2.252     2.347
 131   1 H      0.035  0.965  0.000  0.000     2.516     2.480
 132   1 H      0.039  0.961  0.000  0.000     2.458     2.452
 133   1 H      0.053  0.947  0.000  0.000     2.280     2.361
 134   1 H      0.040  0.960  0.000  0.000     2.453     2.449
 135   1 H      0.334  0.666  0.000  0.000     0.627     1.244
 136   7 N     -0.192  1.256  3.936  0.000    25.159     7.450
 137   6 C      0.027  1.060  2.913  0.000    20.132     6.390
 138   6 C      0.258  1.051  2.690  0.000    22.648     7.793
 139   8 O     -0.486  1.732  4.754  0.000    23.484     6.497
 140   6 C     -0.069  1.051  3.019  0.000    21.805     6.645
 141   6 C      0.015  1.076  2.909  0.000    27.683     8.631
 142   6 C     -0.039  1.081  2.958  0.000    28.971     8.827
 143   6 C     -0.042  1.082  2.960  0.000    29.049     8.839
 144   6 C     -0.031  1.080  2.951  0.000    28.775     8.797
 145   6 C     -0.032  1.080  2.952  0.000    28.795     8.800
 146   6 C     -0.033  1.078  2.956  0.000    28.835     8.806
 147   1 H      0.233  0.767  0.000  0.000     0.951     1.528
 148   1 H      0.072  0.928  0.000  0.000     2.060     2.244
 149   1 H      0.058  0.942  0.000  0.000     2.224     2.332
 150   1 H      0.054  0.946  0.000  0.000     2.269     2.356
 151   1 H      0.041  0.959  0.000  0.000     2.430     2.438
 152   1 H      0.035  0.965  0.000  0.000     2.510     2.478
 153   1 H      0.036  0.964  0.000  0.000     2.497     2.471
 154   1 H      0.033  0.967  0.000  0.000     2.538     2.491
 155   1 H      0.033  0.967  0.000  0.000     2.543     2.494
 156   7 N     -0.151  1.229  3.922  0.000    24.270     7.317
 157   6 C      0.014  1.054  2.932  0.000    20.322     6.416
 158   6 C      0.264  1.040  2.696  0.000    22.553     7.777
 159   8 O     -0.511  1.760  4.751  0.000    24.025     6.572
 160   1 H      0.204  0.796  0.000  0.000     1.083     1.631
 161   1 H      0.106  0.894  0.000  0.000     1.735     2.060
 162   6 C      0.116  1.039  2.845  0.000    18.745     6.175
 163   8 O     -0.473  1.725  4.749  0.000    22.320     6.378
 164   6 C     -0.142  1.041  3.100  0.000    23.281     6.879
 165   1 H      0.029  0.971  0.000  0.000     2.595     2.519
 166   1 H      0.330  0.670  0.000  0.000     0.637     1.254
 167   1 H      0.072  0.928  0.000  0.000     2.061     2.245
 168   1 H      0.053  0.947  0.000  0.000     2.282     2.362
 169   1 H      0.055  0.945  0.000  0.000     2.262     2.352
 170   7 N     -0.159  1.244  3.914  0.000    24.434     7.341
 171   6 C      0.017  1.054  2.928  0.000    20.288     6.414
 172   6 C      0.208  1.075  2.717  0.000    23.589     7.955
 173   8 O     -0.349  1.729  4.619  0.000    20.679     6.097
 174   6 C     -0.068  1.061  3.007  0.000    21.780     6.641
 175   6 C     -0.010  1.052  2.958  0.000    20.725     6.475
 176   6 C     -0.122  1.040  3.081  0.000    22.871     6.816
 177   6 C     -0.121  1.047  3.074  0.000    22.870     6.818
 178   1 H      0.232  0.768  0.000  0.000     0.958     1.533
 179   1 H      0.091  0.909  0.000  0.000     1.868     2.137
 180   1 H      0.067  0.933  0.000  0.000     2.116     2.275
 181   1 H      0.065  0.935  0.000  0.000     2.147     2.291
 182   1 H      0.033  0.967  0.000  0.000     2.544     2.494
 183   1 H      0.048  0.952  0.000  0.000     2.346     2.395
 184   1 H      0.034  0.966  0.000  0.000     2.535     2.490
 185   1 H      0.049  0.951  0.000  0.000     2.335     2.389
 186   1 H      0.050  0.950  0.000  0.000     2.317     2.380
 187   1 H      0.049  0.951  0.000  0.000     2.329     2.387
 188   1 H      0.043  0.957  0.000  0.000     2.404     2.424
 189   7 N     -0.383  1.327  4.055  0.000    29.893     8.120
 190   6 C      0.037  1.059  2.904  0.000    19.969     6.364
 191   6 C      0.201  1.091  2.708  0.000    23.717     7.976
 192   8 O     -0.373  1.766  4.607  0.000    21.151     6.166
 193   6 C     -0.021  1.067  2.954  0.000    20.909     6.504
 194   6 C     -0.061  1.054  3.007  0.000    21.672     6.628
 195   6 C     -0.113  1.042  3.071  0.000    22.719     6.796
 196   6 C     -0.106  1.039  3.067  0.000    22.584     6.778
 197   1 H      0.161  0.839  0.000  0.000     1.327     1.804
 198   1 H      0.053  0.947  0.000  0.000     2.280     2.361
 199   1 H      0.046  0.954  0.000  0.000     2.367     2.406
 200   1 H      0.043  0.957  0.000  0.000     2.406     2.426
 201   1 H      0.028  0.972  0.000  0.000     2.614     2.528
 202   1 H      0.051  0.949  0.000  0.000     2.309     2.376
 203   1 H      0.029  0.971  0.000  0.000     2.594     2.519
 204   1 H      0.044  0.956  0.000  0.000     2.399     2.422
 205   1 H      0.042  0.958  0.000  0.000     2.418     2.432
 206   1 H      0.041  0.959  0.000  0.000     2.439     2.442
 207   1 H      0.039  0.961  0.000  0.000     2.463     2.454
 208   7 N     -0.380  1.303  4.077  0.000    29.831     8.112
 209   6 C      0.049  1.048  2.903  0.000    19.768     6.334
 210   6 C      0.194  1.093  2.713  0.000    23.856     7.999
 211   8 O     -0.368  1.747  4.621  0.000    21.054     6.152
 212   6 C     -0.075  1.066  3.009  0.000    21.937     6.668
 213   6 C      0.002  1.087  2.911  0.000    27.989     8.677
 214   6 C     -0.035  1.079  2.956  0.000    28.868     8.813
 215   6 C     -0.046  1.086  2.960  0.000    29.155     8.855
 216   6 C     -0.031  1.079  2.952  0.000    28.779     8.797
 217   6 C     -0.043  1.085  2.957  0.000    29.056     8.840
 218   6 C     -0.050  1.083  2.967  0.000    29.248     8.869
 219   1 H      0.166  0.834  0.000  0.000     1.294     1.782
 220   1 H      0.043  0.957  0.000  0.000     2.410     2.428
 221   1 H      0.054  0.946  0.000  0.000     2.274     2.358
 222   1 H      0.057  0.943  0.000  0.000     2.236     2.339
 223   1 H      0.019  0.981  0.000  0.000     2.749     2.593
 224   1 H      0.039  0.961  0.000  0.000     2.463     2.454
 225   1 H      0.042  0.958  0.000  0.000     2.425     2.435
 226   1 H      0.047  0.953  0.000  0.000     2.356     2.400
 227   1 H      0.063  0.937  0.000  0.000     2.165     2.301
 228   7 N     -0.378  1.292  4.086  0.000    29.767     8.103
 229   6 C      0.035  1.054  2.910  0.000    19.993     6.369
 230   6 C      0.264  1.048  2.689  0.000    22.552     7.777
 231   8 O     -0.516  1.748  4.768  0.000    24.151     6.589
 232   6 C     -0.076  1.061  3.016  0.000    21.956     6.671
 233   6 C      0.012  1.084  2.904  0.000    27.740     8.639
 234   6 C     -0.040  1.079  2.961  0.000    28.997     8.832
 235   6 C     -0.040  1.079  2.961  0.000    28.987     8.831
 236   6 C     -0.030  1.073  2.958  0.000    28.755     8.794
 237   6 C     -0.037  1.082  2.954  0.000    28.911     8.818
 238   6 C     -0.032  1.073  2.959  0.000    28.797     8.800
 239   1 H      0.160  0.840  0.000  0.000     1.336     1.810
 240   1 H      0.033  0.967  0.000  0.000     2.544     2.494
 241   1 H      0.057  0.943  0.000  0.000     2.237     2.339
 242   1 H      0.056  0.944  0.000  0.000     2.249     2.345
 243   1 H      0.026  0.974  0.000  0.000     2.644     2.543
 244   1 H      0.034  0.966  0.000  0.000     2.524     2.484
 245   1 H      0.024  0.976  0.000  0.000     2.667     2.554
 246   1 H      0.035  0.965  0.000  0.000     2.516     2.481
 247   1 H      0.026  0.974  0.000  0.000     2.645     2.543
 248   7 N     -0.174  1.256  3.919  0.000    24.775     7.392
 249   6 C      0.021  1.071  2.908  0.000    20.229     6.404
 250   6 C      0.195  1.093  2.712  0.000    23.837     7.995
 251   8 O     -0.369  1.777  4.592  0.000    21.078     6.155
 252   1 H      0.251  0.749  0.000  0.000     0.880     1.470
 253   1 H      0.090  0.910  0.000  0.000     1.877     2.143
 254   6 C     -0.089  1.057  3.032  0.000    22.195     6.706
 255   6 C     -0.088  1.047  3.041  0.000    22.169     6.702
 256   6 C     -0.021  1.050  2.972  0.000    21.025     6.541
 257   7 N     -0.143  1.234  3.909  0.000    24.089     7.290
 258   6 C      0.229  1.023  2.748  0.000    23.191     7.885
 259   7 N     -0.235  1.232  4.003  0.000    26.145     7.594
 260   7 N     -0.266  1.319  3.947  0.000    26.898     7.703
 261   1 H      0.088  0.912  0.000  0.000     1.903     2.157
 262   1 H      0.087  0.913  0.000  0.000     1.906     2.159
 263   1 H      0.073  0.927  0.000  0.000     2.051     2.240
 264   1 H      0.077  0.923  0.000  0.000     2.012     2.218
 265   1 H      0.075  0.925  0.000  0.000     2.033     2.230
 266   1 H      0.085  0.915  0.000  0.000     1.931     2.173
 267   1 H      0.230  0.770  0.000  0.000     0.966     1.540
 268   1 H      0.246  0.754  0.000  0.000     0.899     1.486
 269   1 H      0.259  0.741  0.000  0.000     0.848     1.442
 270   1 H      0.249  0.751  0.000  0.000     0.886     1.475
 271   1 H      0.250  0.750  0.000  0.000     0.883     1.472
 272   7 N     -0.398  1.317  4.081  0.000    30.305     8.176
 273   6 C      0.050  1.049  2.901  0.000    19.754     6.331
 274   6 C      0.197  1.099  2.704  0.000    23.796     7.989
 275   8 O     -0.409  1.780  4.629  0.000    21.865     6.269
 276   6 C     -0.102  1.058  3.044  0.000    22.424     6.738
 277   6 C      0.290  1.023  2.687  0.000    22.076     7.693
 278   8 O     -0.503  1.751  4.751  0.000    23.840     6.546
 279   7 N     -0.254  1.249  4.005  0.000    26.603     7.660
 280   1 H      0.191  0.809  0.000  0.000     1.155     1.683
 281   1 H      0.052  0.948  0.000  0.000     2.301     2.372
 282   1 H      0.089  0.911  0.000  0.000     1.887     2.148
 283   1 H      0.087  0.913  0.000  0.000     1.906     2.159
 284   1 H      0.224  0.776  0.000  0.000     0.992     1.560
 285   1 H      0.234  0.766  0.000  0.000     0.950     1.527
 286   7 N     -0.400  1.306  4.094  0.000    30.371     8.185
 287   6 C      0.037  1.048  2.914  0.000    19.944     6.358
 288   6 C      0.267  1.046  2.687  0.000    22.485     7.766
 289   8 O     -0.501  1.742  4.760  0.000    23.814     6.543
 290   1 H      0.178  0.822  0.000  0.000     1.226     1.735
 291   1 H      0.045  0.955  0.000  0.000     2.388     2.417
 292   6 C      0.118  1.042  2.840  0.000    18.715     6.170
 293   8 O     -0.500  1.735  4.764  0.000    22.880     6.457
 294   6 C     -0.143  1.043  3.100  0.000    23.315     6.884
 295   1 H      0.022  0.978  0.000  0.000     2.706     2.572
 296   1 H      0.338  0.662  0.000  0.000     0.617     1.234
 297   1 H      0.073  0.927  0.000  0.000     2.055     2.242
 298   1 H      0.064  0.936  0.000  0.000     2.152     2.294
 299   1 H      0.035  0.965  0.000  0.000     2.517     2.481
 300   7 N     -0.154  1.244  3.911  0.000    24.339     7.327
 301   6 C      0.014  1.057  2.929  0.000    20.348     6.423
 302   6 C      0.278  1.036  2.686  0.000    22.297     7.733
 303   8 O     -0.483  1.733  4.751  0.000    23.415     6.488
 304   6 C     -0.072  1.058  3.013  0.000    21.849     6.652
 305   6 C     -0.007  1.050  2.957  0.000    20.664     6.465
 306   6 C     -0.117  1.038  3.079  0.000    22.786     6.803
 307   6 C     -0.120  1.047  3.074  0.000    22.857     6.816
 308   1 H      0.210  0.790  0.000  0.000     1.057     1.611
 309   1 H      0.086  0.914  0.000  0.000     1.921     2.168
 310   1 H      0.061  0.939  0.000  0.000     2.192     2.315
 311   1 H      0.054  0.946  0.000  0.000     2.266     2.354
 312   1 H      0.024  0.976  0.000  0.000     2.668     2.554
 313   1 H      0.043  0.957  0.000  0.000     2.404     2.425
 314   1 H      0.040  0.960  0.000  0.000     2.451     2.448
 315   1 H      0.045  0.955  0.000  0.000     2.384     2.414
 316   1 H      0.048  0.952  0.000  0.000     2.347     2.396
 317   1 H      0.047  0.953  0.000  0.000     2.352     2.398
 318   1 H      0.039  0.961  0.000  0.000     2.458     2.452
 319   7 N     -0.184  1.247  3.936  0.000    24.976     7.422
 320   6 C      0.025  1.063  2.912  0.000    20.160     6.394
 321   6 C      0.201  1.089  2.710  0.000    23.715     7.975
 322   8 O     -0.340  1.754  4.586  0.000    20.523     6.074
 323   6 C     -0.062  1.047  3.015  0.000    21.687     6.628
 324   6 C     -0.107  1.057  3.050  0.000    22.523     6.754
 325   6 C      0.294  1.029  2.677  0.000    22.013     7.682
 326   8 O     -0.493  1.727  4.766  0.000    23.622     6.516
 327   7 N     -0.268  1.262  4.006  0.000    26.940     7.709
 328   1 H      0.212  0.788  0.000  0.000     1.045     1.602
 329   1 H      0.086  0.914  0.000  0.000     1.918     2.166
 330   1 H      0.063  0.937  0.000  0.000     2.166     2.301
 331   1 H      0.084  0.916  0.000  0.000     1.942     2.179
 332   1 H      0.074  0.926  0.000  0.000     2.044     2.236
 333   1 H      0.059  0.941  0.000  0.000     2.215     2.327
 334   1 H      0.211  0.789  0.000  0.000     1.051     1.606
 335   1 H      0.239  0.761  0.000  0.000     0.928     1.509
 336   1 H      0.184  0.816  0.000  0.000     1.191     1.710
 337   1 H      0.088  0.912  0.000  0.000     1.894     2.152
 338   1 H      0.195  0.805  0.000  0.000     1.132     1.667
 339   1 H      0.065  0.935  0.000  0.000     2.142     2.289
 340   1 H      0.185  0.815  0.000  0.000     1.183     1.704
 341   1 H      0.075  0.925  0.000  0.000     2.031     2.229
 342   1 H      0.174  0.826  0.000  0.000     1.248     1.750
 343   1 H      0.069  0.931  0.000  0.000     2.098     2.265
 344   1 H      0.178  0.822  0.000  0.000     1.222     1.732
 345   1 H      0.085  0.915  0.000  0.000     1.925     2.170
 346   1 H      0.180  0.820  0.000  0.000     1.213     1.725
 347   1 H      0.085  0.915  0.000  0.000     1.929     2.172
 348   1 H      0.184  0.816  0.000  0.000     1.193     1.711
 349   1 H      0.088  0.912  0.000  0.000     1.900     2.155
 350   1 H      0.186  0.814  0.000  0.000     1.180     1.701
 351   1 H      0.091  0.909  0.000  0.000     1.871     2.139

 Mol. C6AA /au·bohr⁶  :    1098458.934760
 Mol. C8AA /au·bohr⁸  :   24369009.240135
 Mol. α(0) /au        :       1582.543528

 
 Wiberg/Mayer (AO) data. WBOs > 0.1 written file <wbo>
 largest (>0.05) Wiberg bond orders for each atom
           total WBO             WBO to atom ...
     1  N   2.990    C    2 1.025    H    5 0.949    H  336 0.949
     2  C   3.986    N    1 1.025    C    7 0.957    H    6 0.948    C    3 0.944
     3  C   3.949    O    4 1.575    N   15 1.349    C    2 0.944
     4  O   1.928    C    3 1.575    N   15 0.192
     5  H   0.973    N    1 0.949
     6  H   0.997    C    2 0.948
     7  C   3.954    C    9 1.002    O    8 0.980    H   10 0.957    C    2 0.957
     8  O   1.926    C    7 0.980    H   11 0.872
     9  C   3.992    C    7 1.002    H   13 0.976    H   12 0.975    H   14 0.967
    10  H   1.000    C    7 0.957
    11  H   0.888    O    8 0.872
    12  H   0.995    C    9 0.975
    13  H   0.996    C    9 0.976
    14  H   0.999    C    9 0.967
    15  N   3.500    C    3 1.349    C   16 0.967    H   23 0.895    O    4 0.192
    16  C   3.960    N   15 0.967    C   17 0.963    C   19 0.956    H   24 0.948
    17  C   3.949    O   18 1.608    N   34 1.295    C   16 0.963
    18  O   1.960    C   17 1.608    N   34 0.196
    19  C   3.986    C   20 1.003    H   26 0.971    H   25 0.966    C   16 0.956
    20  C   3.995    C   21 1.013    C   19 1.003    C   22 0.998    H   27 0.966
    21  C   3.993    C   20 1.013    H   28 0.981    H   30 0.981    H   29 0.978
    22  C   3.993    C   20 0.998    H   33 0.987    H   31 0.985    H   32 0.985
    23  H   0.952    N   15 0.895
    24  H   0.993    C   16 0.948
    25  H   0.995    C   19 0.966
    26  H   0.997    C   19 0.971
    27  H   0.999    C   20 0.966
    28  H   0.997    C   21 0.981
    29  H   0.999    C   21 0.978
    30  H   0.997    C   21 0.981
    31  H   0.998    C   22 0.985
    32  H   0.997    C   22 0.985
    33  H   0.999    C   22 0.987
    34  N   3.471    C   17 1.295    C   35 0.978    H   43 0.906    O   18 0.196
    35  C   3.963    C   38 0.985    N   34 0.978    H   44 0.950    C   36 0.916    O   37 0.052
    36  C   3.951    O   37 1.634    N   51 1.319    C   35 0.916
    37  O   1.993    C   36 1.634    N   51 0.199    C   35 0.052
    38  C   3.989    C   39 0.999    C   35 0.985    H   45 0.970    H   46 0.966
    39  C   3.992    C   38 0.999    H   48 0.971    C   40 0.955    H   47 0.952    O   41 0.055
    40  C   3.944    O   41 1.596    N   42 1.358    C   39 0.955
    41  O   1.954    C   40 1.596    N   42 0.197    C   39 0.055
    42  N   3.424    C   40 1.358    H   49 0.902    H   50 0.892    O   41 0.197
    43  H   0.955    N   34 0.906
    44  H   0.994    C   35 0.950
    45  H   0.996    C   38 0.970
    46  H   0.994    C   38 0.966
    47  H   0.996    C   39 0.952
    48  H   0.997    C   39 0.971
    49  H   0.949    N   42 0.902
    50  H   0.948    N   42 0.892
    51  N   3.476    C   36 1.319    C   52 0.970    H   59 0.878    O   37 0.199
    52  C   3.964    C   53 0.976    N   51 0.970    H   60 0.953    C   55 0.950    O   54 0.056
    53  C   3.887    O   54 1.870    C   52 0.976    H  337 0.953
    54  O   2.069    C   53 1.870    C   52 0.056
    55  C   3.985    C   57 1.001    C   56 0.992    H   61 0.963    C   52 0.950
    56  C   3.994    C   58 1.015    C   55 0.992    H   62 0.977    H   63 0.974
    57  C   3.991    C   55 1.001    H   66 0.985    H   65 0.984    H   64 0.981
    58  C   3.993    C   56 1.015    H   68 0.986    H   67 0.986    H   69 0.985
    59  H   0.944    N   51 0.878
    60  H   0.992    C   52 0.953
    61  H   0.997    C   55 0.963
    62  H   0.998    C   56 0.977
    63  H   0.999    C   56 0.974
    64  H   0.994    C   57 0.981
    65  H   0.998    C   57 0.984
    66  H   0.997    C   57 0.985
    67  H   0.997    C   58 0.986
    68  H   0.998    C   58 0.986
    69  H   0.998    C   58 0.985
    70  O   1.806    H   72 0.903    H   71 0.895
    71  H   0.903    O   70 0.895
    72  H   0.904    O   70 0.903
    73  O   1.837    H   75 0.903    H   74 0.888
    74  H   0.891    O   73 0.888
    75  H   0.907    O   73 0.903
    76  O   1.790    H   77 0.879    H   78 0.871
    77  H   0.910    O   76 0.879
    78  H   0.903    O   76 0.871
    79  O   1.794    H   80 0.877    H   81 0.870
    80  H   0.909    O   79 0.877
    81  H   0.905    O   79 0.870
    82  O   1.798    H   84 0.909    H   83 0.854
    83  H   0.906    O   82 0.854
    84  H   0.910    O   82 0.909
    85  O   1.809    H   87 0.904    H   86 0.894
    86  H   0.899    O   85 0.894
    87  H   0.906    O   85 0.904
    88  O   1.817    H   90 0.901    H   89 0.896
    89  H   0.903    O   88 0.896
    90  H   0.906    O   88 0.901
    91  O   1.803    H   92 0.899    H   93 0.883
    92  H   0.904    O   91 0.899
    93  H   0.901    O   91 0.883
    94  N   3.004    C   95 1.031    H   98 0.954    H  338 0.949
    95  C   3.985    N   94 1.031    C   96 0.978    H   99 0.954    C  100 0.936    O   97 0.059
    96  C   3.894    O   97 1.887    C   95 0.978    H  339 0.956
    97  O   2.026    C   96 1.887    C   95 0.059
    98  H   0.973    N   94 0.954
    99  H   0.996    C   95 0.954
   100  C   3.990    C  101 1.011    H  108 0.965    H  109 0.949    C   95 0.936
   101  C   3.987    C  103 1.411    C  102 1.391    C  100 1.011    C  106 0.095
   102  C   3.991    C  104 1.466    C  101 1.391    H  110 0.966    C  105 0.103
   103  C   3.987    C  105 1.442    C  101 1.411    H  111 0.946    C  104 0.107
   104  C   3.990    C  102 1.466    C  106 1.357    H  112 0.969    C  103 0.107
   105  C   3.984    C  103 1.442    C  106 1.380    H  113 0.950    C  102 0.103    O  107 0.057
   106  C   3.940    C  105 1.380    C  104 1.357    O  107 1.068    C  101 0.095
   107  O   2.081    C  106 1.068    H  114 0.858    C  105 0.057
   108  H   0.995    C  100 0.965
   109  H   0.997    C  100 0.949
   110  H   0.999    C  102 0.966
   111  H   0.996    C  103 0.946
   112  H   0.998    C  104 0.969
   113  H   0.995    C  105 0.950
   114  H   0.888    O  107 0.858
   115  N   3.006    C  116 1.027    H  119 0.957    H  340 0.953
   116  C   3.983    N  115 1.027    H  120 0.955    C  121 0.953    C  117 0.942    O  118 0.051
   117  C   3.942    O  118 1.640    N  136 1.290    C  116 0.942
   118  O   1.946    C  117 1.640    N  136 0.195    C  116 0.051
   119  H   0.975    N  115 0.957
   120  H   0.997    C  116 0.955
   121  C   3.993    C  122 1.015    H  129 0.968    C  116 0.953    H  130 0.948
   122  C   3.988    C  124 1.416    C  123 1.390    C  121 1.015    C  127 0.096
   123  C   3.992    C  125 1.466    C  122 1.390    H  131 0.960    C  126 0.104
   124  C   3.990    C  126 1.440    C  122 1.416    H  132 0.967    C  125 0.107
   125  C   3.989    C  123 1.466    C  127 1.360    H  133 0.966    C  124 0.107
   126  C   3.988    C  124 1.440    C  127 1.388    H  134 0.966    C  123 0.104    O  128 0.055
   127  C   3.937    C  126 1.388    C  125 1.360    O  128 1.054    C  122 0.096
   128  O   2.063    C  127 1.054    H  135 0.866    C  126 0.055
   129  H   0.997    C  121 0.968
   130  H   0.996    C  121 0.948
   131  H   0.999    C  123 0.960
   132  H   0.998    C  124 0.967
   133  H   0.997    C  125 0.966
   134  H   0.998    C  126 0.966
   135  H   0.888    O  128 0.866
   136  N   3.450    C  117 1.290    C  137 0.986    H  147 0.882    O  118 0.195
   137  C   3.973    N  136 0.986    C  140 0.954    H  148 0.953    C  138 0.948
   138  C   3.947    O  139 1.589    N  156 1.315    C  137 0.948
   139  O   1.953    C  138 1.589    N  156 0.188
   140  C   3.990    C  141 1.013    H  149 0.968    H  150 0.966    C  137 0.954
   141  C   3.988    C  143 1.428    C  142 1.394    C  140 1.013    C  146 0.108
   142  C   3.991    C  144 1.463    C  141 1.394    H  151 0.968    C  145 0.110
   143  C   3.990    C  141 1.428    C  145 1.426    H  152 0.969    C  144 0.113
   144  C   3.992    C  142 1.463    C  146 1.419    H  153 0.971    C  143 0.113
   145  C   3.992    C  146 1.460    C  143 1.426    H  154 0.971    C  142 0.110
   146  C   3.992    C  145 1.460    C  144 1.419    H  155 0.971    C  141 0.108
   147  H   0.946    N  136 0.882
   148  H   0.994    C  137 0.953
   149  H   0.996    C  140 0.968
   150  H   0.996    C  140 0.966
   151  H   0.998    C  142 0.968
   152  H   0.999    C  143 0.969
   153  H   0.998    C  144 0.971
   154  H   0.999    C  145 0.971
   155  H   0.998    C  146 0.971
   156  N   3.491    C  138 1.315    C  157 0.992    H  160 0.919    O  139 0.188
   157  C   3.959    N  156 0.992    C  162 0.959    H  161 0.936    C  158 0.928
   158  C   3.955    O  159 1.596    N  170 1.351    C  157 0.928
   159  O   1.920    C  158 1.596    N  170 0.204
   160  H   0.958    N  156 0.919
   161  H   0.989    C  157 0.936
   162  C   3.960    C  164 1.002    O  163 0.988    C  157 0.959    H  165 0.955
   163  O   1.938    C  162 0.988    H  166 0.867
   164  C   3.990    C  162 1.002    H  168 0.981    H  167 0.976    H  169 0.965
   165  H   0.999    C  162 0.955
   166  H   0.891    O  163 0.867
   167  H   0.994    C  164 0.976
   168  H   0.997    C  164 0.981
   169  H   0.997    C  164 0.965
   170  N   3.503    C  158 1.351    C  171 0.963    H  178 0.887    O  159 0.204
   171  C   3.959    C  172 0.999    N  170 0.963    H  179 0.950    C  174 0.936    O  173 0.055
   172  C   3.905    O  173 1.879    C  171 0.999    H  341 0.950
   173  O   2.067    C  172 1.879    C  171 0.055
   174  C   3.981    C  175 1.002    H  181 0.969    H  180 0.965    C  171 0.936
   175  C   3.995    C  176 1.012    C  174 1.002    C  177 0.998    H  182 0.964
   176  C   3.994    C  175 1.012    H  183 0.984    H  185 0.984    H  184 0.980
   177  C   3.992    C  175 0.998    H  188 0.987    H  186 0.986    H  187 0.986
   178  H   0.946    N  170 0.887
   179  H   0.991    C  171 0.950
   180  H   0.995    C  174 0.965
   181  H   0.996    C  174 0.969
   182  H   0.999    C  175 0.964
   183  H   0.998    C  176 0.984
   184  H   0.999    C  176 0.980
   185  H   0.998    C  176 0.984
   186  H   0.997    C  177 0.986
   187  H   0.997    C  177 0.986
   188  H   0.998    C  177 0.987
   189  N   2.998    C  190 1.008    H  197 0.957    H  342 0.950
   190  C   3.983    N  189 1.008    C  191 0.978    H  198 0.961    C  193 0.952    O  192 0.056
   191  C   3.894    O  192 1.897    C  190 0.978    H  343 0.957
   192  O   2.032    C  191 1.897    C  190 0.056
   193  C   3.992    C  195 1.002    C  194 0.994    H  199 0.965    C  190 0.952
   194  C   3.995    C  196 1.015    C  193 0.994    H  200 0.977    H  201 0.969
   195  C   3.995    C  193 1.002    H  204 0.987    H  203 0.985    H  202 0.975
   196  C   3.994    C  194 1.015    H  205 0.986    H  206 0.985    H  207 0.979
   197  H   0.974    N  189 0.957
   198  H   0.997    C  190 0.961
   199  H   0.998    C  193 0.965
   200  H   0.998    C  194 0.977
   201  H   0.999    C  194 0.969
   202  H   0.997    C  195 0.975
   203  H   0.999    C  195 0.985
   204  H   0.998    C  195 0.987
   205  H   0.997    C  196 0.986
   206  H   0.998    C  196 0.985
   207  H   0.998    C  196 0.979
   208  N   3.004    C  209 1.017    H  344 0.951    H  219 0.951
   209  C   3.985    N  208 1.017    C  210 0.999    H  220 0.955    C  212 0.930
   210  C   3.894    O  211 1.863    C  209 0.999    H  345 0.953
   211  O   2.040    C  210 1.863
   212  C   3.989    C  213 0.998    H  222 0.974    H  221 0.967    C  209 0.930
   213  C   3.986    C  215 1.427    C  214 1.412    C  212 0.998    C  218 0.106
   214  C   3.992    C  216 1.446    C  213 1.412    H  223 0.968    C  217 0.115
   215  C   3.990    C  217 1.430    C  213 1.427    H  224 0.969    C  216 0.112
   216  C   3.991    C  214 1.446    C  218 1.435    H  225 0.966    C  215 0.112
   217  C   3.990    C  218 1.445    C  215 1.430    H  226 0.971    C  214 0.115
   218  C   3.988    C  217 1.445    C  216 1.435    H  227 0.944    C  213 0.106
   219  H   0.972    N  208 0.951
   220  H   0.998    C  209 0.955
   221  H   0.997    C  212 0.967
   222  H   0.996    C  212 0.974
   223  H   1.000    C  214 0.968
   224  H   0.998    C  215 0.969
   225  H   0.998    C  216 0.966
   226  H   0.997    C  217 0.971
   227  H   0.995    C  218 0.944
   228  N   3.015    C  229 1.037    H  346 0.954    H  239 0.951
   229  C   3.985    N  228 1.037    H  240 0.956    C  232 0.955    C  230 0.923    O  231 0.050
   230  C   3.945    O  231 1.591    N  248 1.346    C  229 0.923
   231  O   1.938    C  230 1.591    N  248 0.197    C  229 0.050
   232  C   3.992    C  233 1.004    H  241 0.970    H  242 0.961    C  229 0.955
   233  C   3.987    C  235 1.464    C  234 1.369    C  232 1.004    C  238 0.104
   234  C   3.992    C  236 1.476    C  233 1.369    H  243 0.967    C  237 0.124
   235  C   3.990    C  233 1.464    C  237 1.397    H  244 0.964    C  236 0.104
   236  C   3.994    C  234 1.476    C  238 1.419    H  245 0.969    C  235 0.104
   237  C   3.990    C  238 1.468    C  235 1.397    H  246 0.972    C  234 0.124
   238  C   3.992    C  237 1.468    C  236 1.419    H  247 0.970    C  233 0.104
   239  H   0.974    N  228 0.951
   240  H   0.998    C  229 0.956
   241  H   0.996    C  232 0.970
   242  H   0.997    C  232 0.961
   243  H   0.999    C  234 0.967
   244  H   0.999    C  235 0.964
   245  H   0.999    C  236 0.969
   246  H   0.998    C  237 0.972
   247  H   0.998    C  238 0.970
   248  N   3.483    C  230 1.346    C  249 0.961    H  252 0.878    O  231 0.197
   249  C   3.962    C  254 0.976    C  250 0.971    N  248 0.961    H  253 0.949    O  251 0.055
   250  C   3.895    O  251 1.897    C  249 0.971    H  347 0.954
   251  O   2.037    C  250 1.897    C  249 0.055
   252  H   0.937    N  248 0.878
   253  H   0.992    C  249 0.949
   254  C   3.980    C  255 1.001    C  249 0.976    H  262 0.965    H  261 0.965
   255  C   3.987    C  256 1.009    C  254 1.001    H  263 0.965    H  264 0.962
   256  C   3.957    C  255 1.009    N  257 0.976    H  265 0.961    H  266 0.958
   257  N   3.450    C  258 1.306    C  256 0.976    H  267 0.915    N  259 0.102    N  260 0.087
   258  C   3.976    N  259 1.342    N  257 1.306    N  260 1.293
   259  N   3.418    C  258 1.342    H  269 0.913    H  268 0.911    N  257 0.102    N  260 0.097
   260  N   3.341    C  258 1.293    H  271 0.911    H  270 0.910    N  259 0.097    N  257 0.087
   261  H   0.992    C  254 0.965
   262  H   0.992    C  254 0.965
   263  H   0.994    C  255 0.965
   264  H   0.994    C  255 0.962
   265  H   0.994    C  256 0.961
   266  H   0.993    C  256 0.958
   267  H   0.947    N  257 0.915
   268  H   0.940    N  259 0.911
   269  H   0.933    N  259 0.913
   270  H   0.938    N  260 0.910
   271  H   0.936    N  260 0.911
   272  N   2.991    C  273 1.009    H  348 0.955    H  280 0.922
   273  C   3.989    N  272 1.009    C  274 0.990    C  276 0.954    H  281 0.954
   274  C   3.883    O  275 1.866    C  273 0.990    H  349 0.956
   275  O   1.995    C  274 1.866
   276  C   3.988    H  283 0.966    C  277 0.963    C  273 0.954    H  282 0.944    O  278 0.051
   277  C   3.948    O  278 1.593    N  279 1.362    C  276 0.963
   278  O   1.958    C  277 1.593    N  279 0.194    C  276 0.051
   279  N   3.435    C  277 1.362    H  284 0.921    H  285 0.919    O  278 0.194
   280  H   0.964    N  272 0.922
   281  H   0.997    C  273 0.954
   282  H   0.992    C  276 0.944
   283  H   0.992    C  276 0.966
   284  H   0.950    N  279 0.921
   285  H   0.945    N  279 0.919
   286  N   2.986    C  287 1.026    H  350 0.948    H  290 0.936
   287  C   3.988    N  286 1.026    C  292 0.956    H  291 0.952    C  288 0.945
   288  C   3.944    O  289 1.569    N  300 1.348    C  287 0.945
   289  O   1.935    C  288 1.569    N  300 0.188
   290  H   0.968    N  286 0.936
   291  H   0.998    C  287 0.952
   292  C   3.954    C  294 1.002    O  293 0.981    H  295 0.957    C  287 0.956
   293  O   1.924    C  292 0.981    H  296 0.869
   294  C   3.992    C  292 1.002    H  299 0.985    H  297 0.978    H  298 0.976
   295  H   0.999    C  292 0.957
   296  H   0.886    O  293 0.869
   297  H   0.995    C  294 0.978
   298  H   0.996    C  294 0.976
   299  H   0.999    C  294 0.985
   300  N   3.503    C  288 1.348    C  301 0.966    H  308 0.920    O  289 0.188
   301  C   3.960    N  300 0.966    C  302 0.961    C  304 0.958    H  309 0.948
   302  C   3.953    O  303 1.642    N  319 1.276    C  301 0.961
   303  O   1.955    C  302 1.642    N  319 0.199
   304  C   3.987    C  305 1.003    H  311 0.972    H  310 0.970    C  301 0.958
   305  C   3.996    C  306 1.013    C  304 1.003    C  307 0.998    H  312 0.968
   306  C   3.995    C  305 1.013    H  313 0.984    H  315 0.984    H  314 0.978
   307  C   3.993    C  305 0.998    H  318 0.988    H  316 0.987    H  317 0.987
   308  H   0.956    N  300 0.920
   309  H   0.993    C  301 0.948
   310  H   0.996    C  304 0.970
   311  H   0.997    C  304 0.972
   312  H   0.999    C  305 0.968
   313  H   0.998    C  306 0.984
   314  H   0.998    C  306 0.978
   315  H   0.998    C  306 0.984
   316  H   0.997    C  307 0.987
   317  H   0.998    C  307 0.987
   318  H   0.998    C  307 0.988
   319  N   3.459    C  302 1.276    C  320 0.973    H  328 0.906    O  303 0.199
   320  C   3.963    C  323 0.975    N  319 0.973    C  321 0.956    H  329 0.955    O  322 0.056
   321  C   3.890    O  322 1.914    C  320 0.956    H  351 0.951
   322  O   2.088    C  321 1.914    C  320 0.056
   323  C   3.985    C  324 0.999    C  320 0.975    H  330 0.968    H  331 0.964
   324  C   3.992    C  323 0.999    H  333 0.972    C  325 0.953    H  332 0.950    O  326 0.056
   325  C   3.947    O  326 1.610    N  327 1.350    C  324 0.953
   326  O   1.971    C  325 1.610    N  327 0.199    C  324 0.056
   327  N   3.425    C  325 1.350    H  334 0.931    H  335 0.886    O  326 0.199
   328  H   0.955    N  319 0.906
   329  H   0.992    C  320 0.955
   330  H   0.996    C  323 0.968
   331  H   0.993    C  323 0.964
   332  H   0.994    C  324 0.950
   333  H   0.996    C  324 0.972
   334  H   0.955    N  327 0.931
   335  H   0.942    N  327 0.886
   336  H   0.965    N    1 0.949
   337  H   0.992    C   53 0.953
   338  H   0.962    N   94 0.949
   339  H   0.996    C   96 0.956
   340  H   0.965    N  115 0.953
   341  H   0.994    C  172 0.950
   342  H   0.970    N  189 0.950
   343  H   0.995    C  191 0.957
   344  H   0.968    N  208 0.951
   345  H   0.993    C  210 0.953
   346  H   0.968    N  228 0.954
   347  H   0.993    C  250 0.954
   348  H   0.966    N  272 0.955
   349  H   0.992    C  274 0.956
   350  H   0.965    N  286 0.948
   351  H   0.992    C  321 0.951
 
molecular dipole:
                 x           y           z       tot (Debye)
 q only:       13.617      45.329     -20.397
   full:       14.635      43.414     -19.905     126.967
molecular quadrupole (traceless):
                xx          xy          yy          xz          yz          zz
 q only:     -994.477     857.213    1810.105    -531.133   -1658.483    -815.628
  q+dip:     -822.902     868.377    1598.485    -519.929   -1608.871    -775.583
   full:     -818.241     869.558    1594.887    -519.539   -1608.132    -776.645
speedup  9.58
cpu  time for grad   18.61 s
wall time for grad    1.94 s

SCC energy    :    -532.8243844
rep           :       6.8799639
ES            :       1.4117235
AES           :      -0.0271116
AXC           :       0.1875288
disp          :      -0.4289761
XB            :       0.0000000
fix           :       0.0000000
Gborn         :       0.0000000
Gsasa         :       0.0000000
Ghb           :       0.0000000
Gshift        :       0.0000000
Gsolv         :      -0.2741561     -172.04
Etot ala COSMO:    -532.8243844
grad norm     :       0.7048260
total E       :    -525.9023944
atomizationE  :      95.8028118    60117.17
(atE without considering molecular charge,
 total energy contains solvation terms)
H-L gap (eV)  :          1.4326

------------------------------------------------------------------------
 * finished run on 2019/02/16 at 08:11:01.288     
------------------------------------------------------------------------
 total:
 * wall-time:     0 d,  0 h,  0 min,  2.226 sec
 *  cpu-time:     0 d,  0 h,  0 min, 21.876 sec
 * ratio c/w:     9.828 speedup
 SCF:
 * wall-time:     0 d,  0 h,  0 min,  2.078 sec
 *  cpu-time:     0 d,  0 h,  0 min, 20.230 sec
 * ratio c/w:     9.735 speedup

