      -----------------------------------------------------------      
     |                   =====================                   |     
     |                           x T B                           |     
     |                   =====================                   |     
     |                         S. Grimme                         |     
     |          Mulliken Center for Theoretical Chemistry        |     
     |                    University of Bonn                     |     
     |                 Version 6.0.1 (SAW181210)                 |     
      -----------------------------------------------------------      

   This program is distributed in the hope that it will be useful,
   but WITHOUT ANY WARRANTY; without even the implied warranty of
   MERCHANTABILITY or FITNESS FOR A PARTICULAR PURPOSE.
   
   FOR NON-COMMERCIAL, ACADEMIA USE ONLY.
   
   Cite this work as:
   S. Grimme, C. Bannwarth, P. Shushkov, J. Comput. Theory Chem., 2017,
   13, 1989-2009.
   C. Bannwarth, S. Ehlert and S. Grimme., ChemRxiv, 2018, preprint.
   http://doi.org/10.26434/chemrxiv.7246238.v1
   
   for sTDA-xTB:
   S. Grimme and C. Bannwarth, J. Chem. Phys., 2016, 145, 054103.
   
   in the mass-spec context:
   V. Asgeirsson, C. Bauer and S. Grimme, Chem. Sci., 2017, 8, 4879.
   
   if GBSA is used:
   P. Shushkov, F. März and S. Grimme, unpublished.
   
   for ANC optimizer:
   S. Grimme, unpublished.
   Rational Function algorithm used in ANCopt:
   F. Eckert, P. Pulay, H.-J. Werner, J. Comput. Chem., 1997, 18, 1473.
   
   with help from (in alphabetical order)
   C. Bannwarth, F. Bohle, G. Brandenburg, E. Caldeweyher, M. Checinski,
   S. Dohm, S. Ehlert, S. Ehrlich, F. März, H. Neugebauer, J. Pisarek,
   P. Pracht, P. Shushkov, and S. Spicher.
   
 * started run on 2019/02/22 at 14:20:41.138     
========================================================================
 # omp threads = 12
========================================================================
number of atoms            : 1824
number of electrons        : 5042
charge                     : -3
spin                       : .0
first test random number   : .4813

########################################################################
# WARNING! Please study the warnings concerning your input carefully
#  - Process number higher than OMP_NUM_THREADS, I hope you know what you are doing.
########################################################################

           ------------------------------------------------- 
          |                 G F N 2 - x T B                 |
          | Geometry, Frequencies, Noncovalent interactions |
          |            JCTC 2018 parametrisation            |
           ------------------------------------------------- 
 
      method parameters     
 k(s)        :  1.8500
 k(p)        :  2.2300
 k(d)        :  2.2300
 k(f)        :  2.0000
 kEN (H0ij)  : -2.0000
 D4 a1       :  0.5200
 D4 a2       :  5.0000
 D4 s6       :  1.0000
 D4 s8       :  2.7000
 D4 s9       :  5.0000
 alphaj      :  2.0000

 Solvent             : h2o
 Using internal parameter file: .param_gbsa2_h2o
 Gsolv ref. state (COSMO-RS): gsolv [1 M gas/solution]
 temperature (mdtemp)       :    298.150000000000     
 dielectric constant        :    80.2000000000000     
 rho                        :    1.00000000000000     
 mass                       :    18.0000000000000     
 surface tension            :    15.5689454083859     
 probe radius               :   0.975313790000000     
 vdW radii scaling          :    1.00000000000000     
 Gshift (Eh)                :   1.857443126794793E-003
 c1                         :    1.55243817000000     
 soset                      :   0.130326360000000     
 HB correction              :  T

            Z     q(EN)     CN     RAES       Cart. coordinates
     1  N   5.0   -0.12    4.13    3.25    11.47178     3.52091    37.48414
     2  C   4.0   -0.02    4.27    4.14    11.00484     3.72758    34.83495
     3  C   4.0    0.15    3.38    3.07    13.04804     5.29802    33.57672
     4  O   6.0   -0.31    1.28    1.80    15.07666     5.61269    34.64450
     5  H   1.0    0.09    1.06    1.44    12.81598     4.68333    38.09991
     6  H   1.0    0.05    1.06    1.44     9.92091     3.88160    38.43689
     7  H   1.0    0.06    1.04    1.43    11.93448     1.70653    37.92160
     8  H   1.0    0.05    1.05    1.44    10.77214     1.91725    34.09061
     9  H   1.0    0.04    1.05    1.44     9.25925     4.68402    34.57554
    10  N   5.0   -0.15    3.50    2.08    12.41196     6.21875    31.37384
    11  C   4.0    0.04    4.51    4.55    14.13148     7.96147    30.11089
    12  C   4.0    0.15    3.50    3.11    12.63125    10.30458    29.23533
    13  O   6.0   -0.31    1.25    1.80    10.35580    10.20079    28.80822
    14  C   4.0   -0.03    4.17    3.94    15.67027     6.73584    27.99978
    15  S   6.0   -0.04    2.44    3.10    13.91923     5.59004    25.27945
    16  H   1.0    0.09    1.10    1.44    10.76541     6.07592    30.67598
    17  H   1.0    0.07    1.08    1.44    15.40551     8.65851    31.57834
    18  H   1.0    0.06    1.09    1.44    17.02959     8.06818    27.26922
    19  H   1.0    0.05    1.10    1.44    16.48448     5.00948    28.69691
    20  N   5.0   -0.15    3.49    2.07    14.00502    12.41901    29.12619
    21  C   4.0    0.04    4.34    4.28    12.93197    14.86989    28.62833
    22  C   4.0    0.16    3.39    3.08    13.30757    15.67015    25.82441
    23  O   6.0   -0.32    1.29    1.80    15.15415    15.05745    24.60318
    24  C   4.0   -0.06    4.18    3.96    14.17271    16.83210    30.30683
    25  H   1.0    0.11    1.14    1.45    15.72980    12.23379    29.41958
    26  H   1.0    0.06    1.06    1.44    10.89630    14.71979    29.00437
    27  H   1.0    0.06    1.05    1.44    16.09451    16.73803    29.99429
    28  H   1.0    0.06    1.01    1.43    13.65252    16.58013    32.24963
    29  H   1.0    0.06    1.03    1.43    13.66652    18.65394    29.87204
    30  N   5.0   -0.14    3.50    2.08    11.52474    17.22339    24.95805
    31  C   4.0    0.03    4.44    4.44    11.53085    18.21747    22.38662
    32  C   4.0    0.15    3.41    3.08    12.49571    20.97681    22.39223
    33  O   6.0   -0.30    1.31    1.80    13.16590    22.06378    24.28319
    34  C   4.0   -0.04    4.36    4.32     8.92487    17.89218    21.22285
    35  C   4.0   -0.01    3.56    3.14     8.26123    15.19862    20.91556
    36  C   4.0   -0.04    3.44    3.09     9.36207    13.83247    18.96396
    37  C   4.0   -0.04    3.43    3.09     6.75655    13.89607    22.70847
    38  C   4.0   -0.04    3.32    3.06     8.82257    11.29559    18.60317
    39  C   4.0   -0.04    3.33    3.06     6.27162    11.30930    22.43640
    40  C   4.0   -0.04    3.35    3.06     7.19521    10.04478    20.30612
    41  H   1.0    0.10    1.10    1.44    10.18486    17.69909    26.05636
    42  H   1.0    0.05    1.08    1.44    12.90843    17.19258    21.31407
    43  H   1.0    0.05    1.06    1.44     7.67523    18.91015    22.39973
    44  H   1.0    0.04    1.04    1.43     8.87752    18.76477    19.36940
    45  H   1.0    0.04    1.00    1.43    10.53842    14.89141    17.55712
    46  H   1.0    0.06    1.03    1.43     6.02352    14.97218    24.26904
    47  H   1.0    0.05    1.00    1.43     9.75523    10.30532    16.99753
    48  H   1.0    0.05    1.03    1.43     5.02511    10.36989    23.74644
    49  H   1.0    0.05    1.02    1.43     6.75751     8.06224    20.08004
    50  N   5.0   -0.15    3.47    2.06    12.69240    22.12384    20.09970
    51  C   4.0    0.03    4.46    4.47    13.73490    24.66701    19.91909
    52  C   4.0    0.16    3.49    3.11    12.20729    26.49150    21.53450
    53  O   6.0   -0.32    1.26    1.80     9.89797    26.54634    21.47854
    54  C   4.0   -0.04    4.35    4.28    13.59630    25.48380    17.17369
    55  C   4.0   -0.03    4.23    4.06    14.88038    27.94682    16.68634
    56  C   4.0    0.25    3.14    3.03    14.80771    28.65384    13.90836
    57  O   6.0   -0.28    1.21    1.80    15.82252    30.66085    13.35486
    58  O   6.0   -0.29    1.20    1.80    13.98897    27.15438    12.30186
    59  H   1.0    0.07    1.09    1.44    12.20445    21.05476    18.72641
    60  H   1.0    0.05    1.08    1.44    15.66642    24.57682    20.47273
    61  H   1.0    0.05    1.01    1.43    14.48549    23.95257    16.00826
    62  H   1.0    0.06    1.06    1.44    11.62492    25.56138    16.77350
    63  H   1.0    0.05    1.04    1.43    13.90789    29.44135    17.71706
    64  H   1.0    0.05    1.02    1.43    16.86542    27.99455    17.29180
    65  N   5.0   -0.16    3.42    2.03    13.63199    28.15377    22.90368
    66  C   4.0    0.01    4.30    4.19    12.46375    30.02813    24.44719
    67  C   4.0    0.15    3.32    3.06    11.62093    29.13148    27.06161
    68  O   6.0   -0.31    1.22    1.80    10.76764    30.65025    28.61493
    69  H   1.0    0.11    1.12    1.45    15.45042    28.06417    22.90703
    70  H   1.0    0.04    1.05    1.44    13.75717    31.54076    24.69470
    71  H   1.0    0.05    1.06    1.44    10.80084    30.64893    23.49821
    72  N   5.0   -0.13    3.51    2.08    11.77937    26.65581    27.46476
    73  C   4.0    0.04    4.42    4.41    10.99514    25.47701    29.81989
    74  C   4.0    0.16    3.43    3.09    13.28476    25.18679    31.58229
    75  O   6.0   -0.30    1.27    1.80    15.40948    24.73845    30.79910
    76  C   4.0   -0.03    4.34    4.27     9.78858    22.89520    29.15044
    77  C   4.0   -0.02    4.25    4.09     9.06312    21.36012    31.46865
    78  C   4.0    0.24    3.15    3.03     7.59937    19.02137    30.73947
    79  O   6.0   -0.31    1.21    1.80     6.87809    18.60801    28.59038
    80  O   6.0   -0.28    1.19    1.80     7.07838    17.43486    32.53997
    81  H   1.0    0.11    1.13    1.45    12.49227    25.60919    26.16540
    82  H   1.0    0.06    1.07    1.44     9.51626    26.57400    30.67038
    83  H   1.0    0.07    1.06    1.44     8.08685    23.22380    28.19007
    84  H   1.0    0.07    1.07    1.44    11.06242    21.93380    28.01914
    85  H   1.0    0.06    1.06    1.44    10.67658    20.70883    32.42536
    86  H   1.0    0.08    1.05    1.44     7.90801    22.48455    32.68070
    87  N   5.0   -0.15    3.47    2.06    12.71748    25.32005    34.03043
    88  C   4.0    0.05    4.39    4.36    14.57063    24.84387    35.99423
    89  C   4.0    0.17    3.47    3.10    15.69360    22.23816    35.76521
    90  O   6.0   -0.31    1.27    1.80    14.29067    20.33965    35.44331
    91  C   4.0    0.05    4.14    3.89    13.31883    25.09013    38.71994
    92  O   6.0   -0.22    2.10    1.84    14.86334    24.31051    40.69133
    93  H   1.0    0.11    1.14    1.45    10.99941    25.62966    34.47053
    94  H   1.0    0.07    1.08    1.44    15.98187    26.24781    35.99022
    95  H   1.0    0.05    0.99    1.43    12.69937    27.10220    38.89237
    96  H   1.0    0.07    1.05    1.44    11.75075    23.91123    38.75690
    97  H   1.0    0.14    1.06    1.44    14.04793    24.55617    42.21993
    98  N   5.0   -0.13    3.57    2.13    18.12172    22.06049    36.10533
    99  C   4.0    0.05    4.53    4.58    19.54298    19.73073    36.16322
   100  C   4.0    0.15    3.46    3.10    20.97822    19.50980    38.64963
   101  O   6.0   -0.29    1.28    1.80    21.65335    21.41458    39.84641
   102  C   4.0   -0.02    4.19    3.98    21.17090    19.34377    33.89210
   103  S   6.0    0.00    2.61    3.10    23.12474    22.14798    33.21915
   104  H   1.0    0.12    1.15    1.45    19.12624    23.55098    36.36118
   105  H   1.0    0.06    1.09    1.44    18.14459    18.23441    36.29718
   106  H   1.0    0.05    1.08    1.44    22.44440    17.77039    34.08994
   107  H   1.0    0.05    1.11    1.45    20.18614    18.94440    32.15446
   108  N   5.0   -0.15    3.52    2.09    21.53117    17.18856    39.33783
   109  C   4.0    0.04    4.45    4.46    23.14705    16.61808    41.51089
   110  C   4.0    0.16    3.50    3.12    24.59287    14.25555    40.73584
   111  O   6.0   -0.30    1.32    1.80    23.41149    12.38989    39.88305
   112  C   4.0   -0.03    4.32    4.24    21.62686    16.30753    43.93760
   113  C   4.0    0.16    3.27    3.05    23.15881    15.06917    46.02156
   114  O   6.0   -0.32    1.31    1.80    23.72389    12.84235    45.85110
   115  N   5.0   -0.20    3.23    1.96    23.67042    16.45380    48.00877
   116  H   1.0    0.11    1.13    1.45    20.77732    15.79232    38.47772
   117  H   1.0    0.07    1.08    1.44    24.39663    18.20966    41.67576
   118  H   1.0    0.06    1.04    1.44    20.96242    18.12417    44.51093
   119  H   1.0    0.05    1.05    1.44    20.06858    15.09965    43.52313
   120  H   1.0    0.12    1.08    1.44    23.29761    18.26151    48.00725
   121  H   1.0    0.12    1.07    1.44    24.65123    15.74086    49.38279
   122  N   5.0   -0.15    3.46    2.05    27.06719    14.30038    40.93693
   123  C   4.0    0.04    4.50    4.54    28.55927    12.20909    39.79881
   124  C   4.0    0.16    3.39    3.08    28.21857     9.68241    41.25031
   125  O   6.0   -0.32    1.35    1.80    28.61836     7.71973    40.13578
   126  C   4.0   -0.02    4.30    4.20    31.38179    12.89154    39.63601
   127  C   4.0   -0.06    4.19    3.99    31.67931    15.02985    37.85294
   128  C   4.0   -0.07    4.17    3.94    32.52427    13.45765    42.19081
   129  H   1.0    0.10    1.10    1.44    27.92103    15.75814    41.65443
   130  H   1.0    0.06    1.07    1.44    27.93248    11.93661    37.87757
   131  H   1.0    0.05    1.07    1.44    32.33294    11.26714    38.80571
   132  H   1.0    0.06    1.03    1.43    32.61262    16.54995    38.81767
   133  H   1.0    0.06    1.01    1.43    29.96147    15.87278    37.15271
   134  H   1.0    0.07    1.01    1.43    32.87446    14.63856    36.28512
   135  H   1.0    0.05    1.02    1.43    31.70388    15.08859    43.00411
   136  H   1.0    0.05    1.01    1.43    34.48635    13.91065    41.79997
   137  H   1.0    0.05    1.02    1.43    32.51890    11.87505    43.38095
   138  N   5.0   -0.14    3.48    2.06    27.30192     9.67493    43.59243
   139  C   4.0    0.04    4.39    4.36    26.74038     7.33705    44.95552
   140  C   4.0    0.16    3.41    3.08    24.11874     6.24941    44.28023
   141  O   6.0   -0.31    1.27    1.80    23.80610     3.98575    44.12812
   142  C   4.0   -0.03    4.26    4.12    26.81480     7.86121    47.83986
   143  C   4.0   -0.03    4.18    3.95    26.22706     5.61864    49.56709
   144  C   4.0    0.16    3.21    3.04    28.24489     3.49614    49.40575
   145  O   6.0   -0.30    1.22    1.80    30.43558     3.98259    48.94954
   146  N   5.0   -0.20    3.21    1.96    27.46892     1.15333    49.75755
   147  H   1.0    0.11    1.11    1.45    26.87751    11.21648    44.49846
   148  H   1.0    0.06    1.05    1.44    28.18728     5.94321    44.45775
   149  H   1.0    0.06    1.04    1.43    28.66528     8.57760    48.29262
   150  H   1.0    0.06    1.03    1.43    25.50663     9.39373    48.27209
   151  H   1.0    0.04    1.02    1.43    26.16534     6.25010    51.54156
   152  H   1.0    0.06    1.03    1.43    24.39153     4.78334    49.12388
   153  H   1.0    0.12    1.07    1.44    25.74019     0.69679    50.14903
   154  H   1.0    0.10    1.05    1.44    28.66092    -0.21172    49.74461
   155  N   5.0   -0.14    3.49    2.07    22.25832     7.88852    44.08398
   156  C   4.0    0.04    4.42    4.42    19.58372     7.04551    44.03021
   157  C   4.0    0.14    3.40    3.08    18.26049     7.41127    41.50552
   158  O   6.0   -0.31    1.23    1.80    16.54905     5.99249    40.93121
   159  C   4.0   -0.04    4.33    4.25    18.13060     8.53910    46.10152
   160  C   4.0   -0.01    3.55    3.14    19.07124     8.03605    48.77511
   161  C   4.0   -0.04    3.49    3.11    18.71025     5.74090    49.84349
   162  C   4.0   -0.04    3.47    3.10    20.22612     9.97716    50.13623
   163  C   4.0   -0.04    3.40    3.08    19.49626     5.28872    52.30628
   164  C   4.0   -0.04    3.35    3.07    20.98360     9.56129    52.66166
   165  C   4.0   -0.04    3.39    3.08    20.58746     7.20969    53.68034
   166  H   1.0    0.11    1.11    1.45    22.53287     9.67712    44.12712
   167  H   1.0    0.07    1.08    1.44    19.53529     5.05364    44.40783
   168  H   1.0    0.04    1.03    1.43    18.23183    10.54656    45.63853
   169  H   1.0    0.05    1.05    1.44    16.22975     7.92066    45.84976
   170  H   1.0    0.06    1.05    1.44    17.71835     4.29887    48.86926
   171  H   1.0    0.06    1.04    1.43    20.55119    11.72238    49.23884
   172  H   1.0    0.05    1.04    1.43    19.24624     3.48601    53.15015
   173  H   1.0    0.06    1.02    1.43    21.82784    11.09734    53.71987
   174  H   1.0    0.05    1.02    1.43    21.17676     6.89341    55.63832
   175  N   5.0   -0.15    3.59    2.15    18.92794     9.48734    40.17702
   176  C   4.0    0.15    3.53    3.13    19.45160    11.46487    36.12734
   177  O   6.0   -0.31    1.31    1.80    19.44834    13.75138    35.67523
   178  H   1.0    0.11    1.14    1.45    20.37508    10.59758    40.50372
   179  H   1.0    0.07    1.11    1.44    16.75264     8.78810    37.16206
   180  C   4.0    0.04    4.55    4.61    17.65412    10.31479    38.04275
   181  C   4.0   -0.03    4.43    4.43    15.77624    12.33059    39.12571
   182  C   4.0   -0.00    3.64    3.19    13.31186    11.66960    37.84827
   183  C   4.0   -0.03    3.41    3.08    12.81202    12.87905    35.54204
   184  C   4.0   -0.04    3.34    3.06    11.70840     9.98456    39.17827
   185  C   4.0   -0.02    3.34    3.06    10.47819    12.56802    34.35771
   186  C   4.0   -0.04    3.48    3.11     9.38882     9.72840    37.93420
   187  C   4.0    0.07    3.41    3.08     8.64288    10.84153    35.60272
   188  O   6.0   -0.22    2.61    2.07     6.45105    10.33516    34.86754
   189  H   1.0    0.04    1.06    1.44    15.54845    12.12564    41.10017
   190  H   1.0    0.06    1.07    1.44    16.24384    14.14509    38.44941
   191  H   1.0    0.06    1.04    1.43    14.18136    14.16615    34.78620
   192  H   1.0    0.06    1.02    1.43    12.00443     9.01897    40.94599
   193  H   1.0    0.07    1.02    1.43    10.00656    13.48034    32.58965
   194  H   1.0    0.05    1.06    1.44     7.87435     8.52249    38.47826
   195  H   1.0    0.10    0.94    1.42     5.02624     9.07290    35.43199
   196  N   5.0   -0.08    3.69    2.25    21.06515     9.87040    35.00069
   197  C   4.0    0.03    4.55    4.61    22.79108    10.91923    33.02867
   198  C   4.0    0.16    3.48    3.11    21.24849    11.67963    30.75367
   199  O   6.0   -0.31    1.32    1.80    19.06136    10.95377    30.43611
   200  C   4.0   -0.04    4.33    4.25    24.49189     8.59432    32.40727
   201  C   4.0   -0.04    4.27    4.15    22.74582     6.34340    32.95101
   202  C   4.0   -0.01    4.36    4.31    21.29699     7.13078    35.30436
   203  H   1.0    0.06    1.05    1.44    23.74250    12.54930    33.79312
   204  H   1.0    0.05    1.04    1.43    25.05509     8.63380    30.47760
   205  H   1.0    0.05    1.03    1.43    26.09152     8.52924    33.63933
   206  H   1.0    0.05    1.01    1.43    21.38239     6.10791    31.35153
   207  H   1.0    0.04    1.05    1.44    23.76633     4.69540    33.24737
   208  H   1.0    0.06    1.06    1.44    19.57315     6.25128    35.36439
   209  H   1.0    0.06    1.03    1.43    22.28355     6.79165    37.04760
   210  N   5.0   -0.15    3.52    2.09    22.37910    13.24374    29.11808
   211  C   4.0    0.04    4.55    4.60    21.13712    13.81234    26.74452
   212  C   4.0    0.16    3.46    3.10    20.86887    11.38217    25.11368
   213  O   6.0   -0.31    1.27    1.80    22.57339     9.84682    25.00123
   214  C   4.0   -0.04    4.21    4.02    22.54635    15.80534    25.22557
   215  S   6.0   -0.03    2.47    3.10    23.00129    18.74223    26.99113
   216  H   1.0    0.10    1.13    1.45    24.05124    13.83328    29.44156
   217  H   1.0    0.06    1.10    1.44    19.33955    14.56930    27.17573
   218  H   1.0    0.05    1.11    1.45    24.35989    15.15586    24.85188
   219  H   1.0    0.05    1.07    1.44    21.46460    16.02237    23.51409
   220  N   5.0   -0.14    3.53    2.10    18.72040    11.19033    23.84444
   221  C   4.0    0.04    4.57    4.62    18.32919     9.04903    22.20123
   222  C   4.0    0.15    3.49    3.11    20.25797     9.12062    20.00120
   223  O   6.0   -0.29    1.23    1.80    20.73790    11.10306    18.93997
   224  C   4.0   -0.04    4.24    4.08    15.73502     9.07108    21.09831
   225  S   6.0    0.00    2.48    3.10    13.14430     8.81961    23.35633
   226  H   1.0    0.11    1.13    1.45    17.44678    12.47534    24.00840
   227  H   1.0    0.04    1.09    1.44    18.62706     7.32850    23.29934
   228  H   1.0    0.06    1.10    1.44    15.36236    10.84399    20.17607
   229  H   1.0    0.04    1.08    1.44    15.76438     7.61960    19.70009
   230  N   5.0   -0.09    3.64    2.20    21.23916     6.84215    19.28924
   231  C   4.0    0.04    4.44    4.45    23.24280     6.69617    17.35922
   232  C   4.0    0.08    3.18    3.03    22.24083     6.83679    14.65916
   233  O   6.0   -0.29    1.12    1.80    20.01016     6.37808    14.09978
   234  C   4.0   -0.05    4.36    4.31    24.50145     4.17624    17.97561
   235  C   4.0   -0.05    4.27    4.15    22.34478     2.52998    19.05963
   236  C   4.0   -0.02    4.41    4.39    20.87887     4.41086    20.59748
   237  H   1.0    0.06    1.06    1.44    24.51099     8.23939    17.73578
   238  H   1.0    0.04    1.03    1.43    25.39284     3.32700    16.38032
   239  H   1.0    0.04    1.03    1.43    26.00718     4.44411    19.31919
   240  H   1.0    0.04    1.03    1.43    21.13198     1.79734    17.59269
   241  H   1.0    0.03    1.03    1.43    23.01584     1.01098    20.19354
   242  H   1.0    0.04    1.05    1.44    18.94129     4.03827    20.61922
   243  H   1.0    0.04    1.05    1.44    21.70176     4.46815    22.41264
   244  N   5.0   -0.22    3.11    1.94    24.91409    16.16374    10.73558
   245  C   4.0    0.01    4.15    3.91    26.62013    18.39066    10.89105
   246  C   4.0    0.14    3.35    3.06    26.64470    19.65896    13.45643
   247  O   6.0   -0.30    1.28    1.80    27.58741    21.77846    13.66479
   248  H   1.0    0.09    1.03    1.43    25.74719    14.50275    10.78068
   249  H   1.0    0.05    1.05    1.44    28.49750    17.86455    10.47465
   250  H   1.0    0.05    1.05    1.44    26.14548    19.89362     9.64272
   251  N   5.0   -0.15    3.50    2.08    25.63316    18.45674    15.45394
   252  C   4.0    0.04    4.46    4.48    25.29777    19.77131    17.78802
   253  C   4.0    0.15    3.42    3.08    27.53160    19.47467    19.58983
   254  O   6.0   -0.31    1.25    1.80    28.58721    17.44369    19.98314
   255  C   4.0   -0.05    4.37    4.33    22.90656    18.71440    19.13087
   256  C   4.0   -0.02    4.20    4.01    20.44600    19.12607    17.62744
   257  C   4.0   -0.07    4.13    3.86    18.27865    17.80301    18.96695
   258  C   4.0   -0.08    4.13    3.87    19.92252    21.90361    17.09118
   259  H   1.0    0.09    1.10    1.44    25.11668    16.75645    15.46444
   260  H   1.0    0.07    1.10    1.44    25.25081    21.76637    17.42153
   261  H   1.0    0.05    1.04    1.43    23.14826    16.77777    19.55485
   262  H   1.0    0.04    1.04    1.43    22.63539    19.68691    20.89677
   263  H   1.0    0.04    1.09    1.44    20.69502    18.31090    15.81723
   264  H   1.0    0.04    1.02    1.43    16.56163    18.01539    17.98820
   265  H   1.0    0.05    1.01    1.43    17.94081    18.48322    20.84480
   266  H   1.0    0.06    1.01    1.43    18.56078    15.80691    19.14353
   267  H   1.0    0.04    1.02    1.43    18.20434    22.13219    16.08949
   268  H   1.0    0.05    1.02    1.43    21.37768    22.66899    15.94874
   269  H   1.0    0.05    1.01    1.43    19.75390    22.95255    18.79552
   270  N   5.0   -0.15    3.53    2.10    28.24265    21.61318    20.71936
   271  C   4.0    0.04    4.46    4.48    30.14227    21.73016    22.70412
   272  C   4.0    0.15    3.43    3.09    28.91246    22.83969    25.03459
   273  O   6.0   -0.31    1.28    1.80    27.25715    24.48264    24.90118
   274  C   4.0    0.06    4.25    4.09    32.39297    23.37044    21.70185
   275  O   6.0   -0.26    2.16    1.85    34.10530    23.41682    23.76250
   276  C   4.0   -0.07    4.13    3.87    31.68842    25.97082    20.81855
   277  H   1.0    0.11    1.12    1.45    27.43452    23.18721    20.24092
   278  H   1.0    0.06    1.08    1.44    30.63385    19.78743    23.02655
   279  H   1.0    0.05    1.05    1.44    33.25829    22.35120    20.16341
   280  H   1.0    0.15    1.08    1.44    35.40950    24.50710    23.35381
   281  H   1.0    0.05    1.02    1.43    30.81035    27.02179    22.29319
   282  H   1.0    0.06    1.02    1.43    30.43312    25.89890    19.28000
   283  H   1.0    0.05    1.04    1.43    33.31940    26.87666    20.26817
   284  N   5.0   -0.14    3.45    2.05    29.61970    21.85087    27.27113
   285  C   4.0    0.04    4.51    4.56    28.44462    22.64983    29.63180
   286  C   4.0    0.15    3.48    3.10    30.07249    24.77455    30.85216
   287  O   6.0   -0.30    1.26    1.80    32.10062    24.27732    31.82564
   288  C   4.0   -0.03    4.22    4.04    28.26700    20.42740    31.40775
   289  S   6.0   -0.01    2.41    3.10    26.70155    21.25179    34.39999
   290  H   1.0    0.10    1.09    1.44    31.09536    20.78592    27.43444
   291  H   1.0    0.06    1.10    1.44    26.65817    23.48509    29.28911
   292  H   1.0    0.05    1.07    1.44    27.18771    18.86803    30.58327
   293  H   1.0    0.07    1.10    1.44    30.09096    19.82556    31.89284
   294  N   5.0   -0.15    3.47    2.06    29.19294    27.14499    30.57104
   295  C   4.0    0.04    4.54    4.59    30.73320    29.26849    31.30778
   296  C   4.0    0.14    3.49    3.11    29.60367    30.60836    33.58531
   297  O   6.0   -0.31    1.28    1.80    27.42392    31.34636    33.51941
   298  C   4.0   -0.02    4.36    4.32    31.03645    31.23606    29.11004
   299  C   4.0   -0.04    4.24    4.08    32.17345    29.95626    26.82222
   300  C   4.0   -0.08    4.19    3.99    32.65367    33.44401    30.01808
   301  C   4.0   -0.08    4.09    3.78    32.51946    31.78352    24.64496
   302  H   1.0    0.11    1.10    1.44    27.51845    27.36555    29.94639
   303  H   1.0    0.06    1.11    1.45    32.51345    28.43928    31.63135
   304  H   1.0    0.05    1.07    1.44    29.18692    31.91231    28.62922
   305  H   1.0    0.06    1.04    1.43    33.92497    29.09693    27.34657
   306  H   1.0    0.06    1.04    1.43    30.91997    28.43771    26.29291
   307  H   1.0    0.05    1.04    1.43    31.70450    34.19078    31.60363
   308  H   1.0    0.04    1.02    1.43    32.84515    34.84881    28.63887
   309  H   1.0    0.05    1.01    1.43    34.50143    33.09332    30.65620
   310  H   1.0    0.04    1.04    1.43    33.84727    33.09746    25.18530
   311  H   1.0    0.04    1.02    1.43    30.86110    32.67318    24.09244
   312  H   1.0    0.04    1.01    1.43    33.28615    30.80450    23.03250
   313  N   5.0   -0.11    3.64    2.20    31.10113    31.00417    35.65125
   314  C   4.0    0.02    4.51    4.55    33.68074    30.17288    35.93777
   315  C   4.0    0.16    3.41    3.08    33.98582    27.39671    36.62018
   316  O   6.0   -0.32    1.30    1.80    35.98768    26.34102    36.28967
   317  C   4.0   -0.04    4.36    4.30    34.64627    31.88865    38.14351
   318  C   4.0   -0.03    4.23    4.07    32.23272    32.41370    39.76801
   319  C   4.0    0.01    4.37    4.32    30.23924    32.68946    37.75812
   320  H   1.0    0.04    1.06    1.44    34.80731    30.56166    34.27406
   321  H   1.0    0.05    1.05    1.44    35.98149    30.95852    39.22994
   322  H   1.0    0.04    1.04    1.43    35.39822    33.58999    37.39995
   323  H   1.0    0.07    1.03    1.43    31.84662    30.78119    40.92168
   324  H   1.0    0.06    1.04    1.43    32.43584    34.07299    40.85827
   325  H   1.0    0.06    1.03    1.43    28.42019    32.04777    38.39405
   326  H   1.0    0.07    1.04    1.43    30.03146    34.52438    36.98025
   327  N   5.0   -0.14    3.43    2.03    31.98901    26.16839    37.61702
   328  C   4.0    0.03    4.31    4.22    32.15128    23.50208    38.19060
   329  C   4.0    0.16    3.35    3.07    33.85279    22.90484    40.41687
   330  O   6.0   -0.32    1.28    1.80    35.22056    20.96840    40.42308
   331  H   1.0    0.11    1.12    1.45    30.44061    26.90684    38.03345
   332  H   1.0    0.06    1.05    1.44    30.36143    22.66800    38.45055
   333  H   1.0    0.07    1.06    1.44    32.96890    22.66750    36.55683
   334  N   5.0   -0.14    3.50    2.08    33.70697    24.44455    42.41278
   335  C   4.0    0.05    4.46    4.48    35.42744    24.23491    44.51566
   336  C   4.0    0.15    3.46    3.10    34.25058    23.83396    47.09285
   337  O   6.0   -0.30    1.36    1.80    35.08812    24.95707    48.95473
   338  C   4.0   -0.02    4.34    4.27    37.29068    26.50509    44.59168
   339  C   4.0    0.17    3.25    3.04    35.92946    29.02977    44.75724
   340  O   6.0   -0.26    1.23    1.80    33.58378    29.21279    44.99572
   341  N   5.0   -0.20    3.22    1.96    37.43910    31.02042    44.47851
   342  H   1.0    0.12    1.10    1.44    32.55356    25.80823    42.49956
   343  H   1.0    0.06    1.10    1.44    36.45874    22.52297    44.23839
   344  H   1.0    0.06    1.04    1.43    38.52550    26.32269    46.17319
   345  H   1.0    0.04    1.05    1.44    38.25814    26.35225    42.83329
   346  H   1.0    0.09    1.07    1.44    39.19733    30.78761    44.44742
   347  H   1.0    0.13    1.07    1.44    36.80885    32.72092    44.52020
   348  N   5.0   -0.10    3.67    2.24    32.36898    22.10128    47.38674
   349  C   4.0    0.02    4.57    4.63    31.48750    20.23556    45.53286
   350  C   4.0    0.15    3.46    3.10    29.18331    21.11234    44.01020
   351  O   6.0   -0.31    1.25    1.80    28.38774    19.70751    42.28230
   352  C   4.0   -0.04    4.41    4.40    30.74887    17.99661    47.16997
   353  C   4.0   -0.04    4.34    4.28    29.77654    19.23245    49.53569
   354  C   4.0   -0.00    4.39    4.36    31.54258    21.41863    50.00522
   355  H   1.0    0.06    1.08    1.44    32.82308    19.78837    44.11778
   356  H   1.0    0.05    1.05    1.44    29.31483    16.93529    46.27840
   357  H   1.0    0.04    1.04    1.43    32.36986    16.85164    47.57725
   358  H   1.0    0.06    1.05    1.44    27.89796    19.84094    49.27086
   359  H   1.0    0.05    1.04    1.43    29.68410    17.94015    51.08216
   360  H   1.0    0.05    1.04    1.43    30.59258    22.96778    50.84186
   361  H   1.0    0.05    1.04    1.43    33.27029    20.96163    50.95055
   362  N   5.0   -0.13    3.54    2.10    27.99274    23.21211    44.75538
   363  C   4.0    0.05    4.50    4.54    25.72883    24.06115    43.50530
   364  C   4.0    0.15    3.45    3.09    26.34181    25.80545    41.31929
   365  O   6.0   -0.30    1.26    1.80    28.32983    27.11466    41.26245
   366  C   4.0   -0.02    4.38    4.35    24.09045    25.52881    45.32282
   367  C   4.0    0.25    3.15    3.03    23.12779    24.14543    47.52256
   368  O   6.0   -0.30    1.25    1.80    23.42653    21.87647    47.76976
   369  O   6.0   -0.26    1.21    1.80    22.00824    25.52137    49.16986
   370  H   1.0    0.09    1.16    1.45    28.58720    23.98596    46.18045
   371  H   1.0    0.07    1.09    1.44    24.76848    22.39010    42.91678
   372  H   1.0    0.06    1.04    1.43    25.17881    27.17819    45.96704
   373  H   1.0    0.06    1.06    1.44    22.61461    26.22906    44.12229
   374  N   5.0   -0.14    3.42    2.03    24.64888    25.83769    39.47099
   375  C   4.0    0.02    4.33    4.25    24.94105    27.46344    37.28792
   376  C   4.0    0.15    3.40    3.08    22.47094    27.73121    35.93300
   377  O   6.0   -0.30    1.31    1.80    20.46127    26.95517    36.82493
   378  H   1.0    0.12    1.12    1.45    23.15067    24.77160    39.49029
   379  H   1.0    0.06    1.06    1.44    25.40345    29.35770    37.75208
   380  H   1.0    0.06    1.05    1.44    26.30229    26.64790    36.02761
   381  N   5.0   -0.14    3.54    2.10    22.65403    28.72946    33.61535
   382  C   4.0    0.04    4.49    4.53    20.61539    28.77168    31.78277
   383  C   4.0    0.15    3.45    3.10    21.66582    27.57754    29.35687
   384  O   6.0   -0.30    1.27    1.80    23.79027    28.01670    28.64491
   385  C   4.0    0.06    4.27    4.13    19.63858    31.42044    31.43496
   386  O   6.0   -0.26    2.15    1.85    18.78748    32.42176    33.75690
   387  C   4.0   -0.07    4.13    3.86    17.51160    31.54724    29.50907
   388  H   1.0    0.11    1.12    1.45    24.18975    29.53173    33.09570
   389  H   1.0    0.06    1.09    1.44    19.15786    27.50509    32.30575
   390  H   1.0    0.05    1.06    1.44    21.18914    32.56245    30.74384
   391  H   1.0    0.15    1.09    1.44    17.40416    31.50896    34.36143
   392  H   1.0    0.06    1.01    1.43    15.95477    30.40353    30.10952
   393  H   1.0    0.05    1.01    1.43    18.08518    30.84216    27.72031
   394  H   1.0    0.04    1.02    1.43    16.91564    33.43508    29.39059
   395  N   5.0   -0.15    3.51    2.08    20.08207    26.01963    28.08080
   396  C   4.0    0.04    4.56    4.61    20.90678    24.82186    25.77383
   397  C   4.0    0.15    3.43    3.09    20.91663    26.78548    23.59746
   398  O   6.0   -0.32    1.28    1.80    18.92747    27.90458    23.06175
   399  C   4.0   -0.03    4.24    4.08    19.22862    22.63036    25.08080
   400  S   6.0   -0.01    2.51    3.10    19.39093    20.05734    27.38106
   401  H   1.0    0.11    1.12    1.45    18.41968    25.59276    28.52768
   402  H   1.0    0.06    1.09    1.44    22.77966    24.06477    26.06316
   403  H   1.0    0.07    1.10    1.44    17.29786    23.16379    25.04726
   404  H   1.0    0.04    1.09    1.44    19.64614    22.04536    23.26110
   405  N   5.0   -0.14    3.50    2.08    23.10171    27.14727    22.53217
   406  C   4.0    0.04    4.44    4.45    23.56041    29.04591    20.61126
   407  C   4.0    0.15    3.44    3.09    24.38239    27.73862    18.19157
   408  O   6.0   -0.31    1.28    1.80    25.91678    25.95506    18.26592
   409  C   4.0   -0.03    4.36    4.30    25.63881    30.83907    21.56318
   410  C   4.0   -0.02    3.57    3.15    26.25291    32.89335    19.77802
   411  C   4.0   -0.04    3.47    3.10    28.38894    32.74530    18.20471
   412  C   4.0   -0.04    3.49    3.11    24.75957    35.03972    19.61241
   413  C   4.0   -0.02    3.46    3.10    28.93003    34.70559    16.52966
   414  C   4.0   -0.05    3.46    3.10    25.28458    36.95420    17.94809
   415  C   4.0    0.07    3.47    3.10    27.39888    36.84683    16.41533
   416  O   6.0   -0.23    2.15    1.85    28.01508    38.75009    14.85219
   417  H   1.0    0.12    1.13    1.45    24.53740    26.23771    23.14474
   418  H   1.0    0.06    1.08    1.44    21.85313    30.09130    20.34528
   419  H   1.0    0.05    1.05    1.44    24.91162    31.60394    23.30405
   420  H   1.0    0.05    1.03    1.43    27.40848    29.87232    22.00305
   421  H   1.0    0.05    1.05    1.44    29.66083    31.27406    18.36322
   422  H   1.0    0.06    1.04    1.43    23.14005    35.12474    20.84026
   423  H   1.0    0.07    1.06    1.44    30.58793    34.69212    15.52326
   424  H   1.0    0.05    1.04    1.43    24.09079    38.57709    17.86835
   425  H   1.0    0.11    1.06    1.44    26.93900    40.14094    15.16289
   426  N   5.0   -0.15    3.43    2.04    23.38417    28.58000    16.03846
   427  C   4.0    0.04    4.42    4.41    24.06781    27.46956    13.60181
   428  C   4.0    0.16    3.43    3.09    26.51848    28.56513    12.47928
   429  O   6.0   -0.30    1.24    1.80    26.79039    30.81561    12.21813
   430  C   4.0   -0.03    4.33    4.26    21.88290    27.90201    11.67745
   431  C   4.0   -0.01    3.57    3.15    22.55884    26.90145     9.10018
   432  C   4.0   -0.03    3.50    3.11    23.69145    28.31630     7.23870
   433  C   4.0   -0.04    3.49    3.11    22.15059    24.32309     8.62265
   434  C   4.0   -0.03    3.44    3.09    24.50027    27.24912     4.98322
   435  C   4.0   -0.05    3.46    3.10    22.88181    23.23586     6.38409
   436  C   4.0    0.07    3.49    3.11    24.14327    24.71979     4.54595
   437  O   6.0   -0.25    2.12    1.84    24.95265    23.54200     2.36834
   438  H   1.0    0.11    1.12    1.45    22.17183    29.89907    16.04890
   439  H   1.0    0.06    1.07    1.44    24.35345    25.49447    14.07707
   440  H   1.0    0.05    1.05    1.44    20.17408    27.13508    12.31945
   441  H   1.0    0.07    1.04    1.44    21.47451    29.87686    11.56326
   442  H   1.0    0.06    1.06    1.44    24.09228    30.20223     7.49253
   443  H   1.0    0.05    1.05    1.44    21.35546    23.11701     9.99297
   444  H   1.0    0.06    1.06    1.44    25.36846    28.35944     3.64057
   445  H   1.0    0.05    1.05    1.44    22.49294    21.32090     6.16201
   446  H   1.0    0.13    1.13    1.45    24.80068    21.92231     2.78661
   447  N   5.0   -0.15    3.47    2.06    28.19245    26.80960    11.75666
   448  C   4.0    0.04    4.42    4.41    30.35008    27.46742    10.16478
   449  C   4.0    0.19    3.29    3.05    30.33193    26.03144     7.68382
   450  O   6.0   -0.30    1.17    1.80    31.26171    27.02357     5.78319
   451  C   4.0   -0.04    4.37    4.33    32.82248    27.21034    11.53137
   452  C   4.0   -0.02    4.20    4.00    33.49710    29.43524    13.34569
   453  C   4.0   -0.07    4.15    3.90    35.54644    28.63610    15.07364
   454  C   4.0   -0.07    4.12    3.84    34.05237    31.81629    11.85362
   455  O   6.0   -0.24    2.11    1.84    29.50002    23.76103     7.80243
   456  H   1.0    0.12    1.13    1.45    27.82636    25.09838    12.14967
   457  H   1.0    0.06    1.09    1.44    30.19657    29.44569     9.65659
   458  H   1.0    0.05    1.03    1.43    32.77515    25.33720    12.38274
   459  H   1.0    0.05    1.05    1.44    34.35996    27.08740    10.20894
   460  H   1.0    0.05    1.06    1.44    31.81828    29.71512    14.51980
   461  H   1.0    0.06    1.02    1.43    37.21548    28.18994    14.04241
   462  H   1.0    0.05    1.02    1.43    34.96589    26.99493    16.10344
   463  H   1.0    0.04    1.01    1.43    35.97253    30.11656    16.39718
   464  H   1.0    0.05    1.01    1.43    32.49414    32.42107    10.71777
   465  H   1.0    0.05    1.02    1.43    35.67820    31.46444    10.71908
   466  H   1.0    0.05    1.01    1.43    34.54424    33.30863    13.16045
   467  H   1.0    0.13    1.01    1.43    29.64734    22.88213     6.12185
   468  C   4.0    0.02    3.93    3.50    42.85126    34.07234    41.76842
   469  O   6.0   -0.27    2.07    1.83    42.69543    31.47529    41.36276
   470  H   1.0    0.06    0.99    1.43    43.74443    34.49687    43.54255
   471  H   1.0    0.06    0.99    1.43    41.04522    35.02208    41.62672
   472  H   1.0    0.06    1.01    1.43    44.04892    34.73009    40.29147
   473  H   1.0    0.12    1.05    1.44    41.77622    30.72220    42.70162
   474  C   4.0    0.01    3.91    3.48    40.46491    32.02579    34.70824
   475  O   6.0   -0.26    2.04    1.83    42.44339    30.99322    36.20315
   476  H   1.0    0.04    0.99    1.43    39.61321    33.65699    35.62745
   477  H   1.0    0.05    0.99    1.43    39.03081    30.61130    34.38920
   478  H   1.0    0.06    1.01    1.43    41.23378    32.50589    32.96908
   479  H   1.0    0.14    1.05    1.44    41.84376    30.57528    37.85447
   480  C   4.0    0.01    3.94    3.53    31.18549     5.13284    34.95108
   481  O   6.0   -0.27    2.24    1.87    30.62726     7.58213    35.61843
   482  H   1.0    0.05    0.99    1.43    32.17546     4.09088    36.40960
   483  H   1.0    0.04    0.99    1.43    29.51288     4.09548    34.41692
   484  H   1.0    0.04    1.00    1.43    32.36879     5.23187    33.28722
   485  H   1.0    0.15    1.11    1.44    29.54324     7.55437    37.10621
   486  C   4.0    0.06    4.35    4.29    33.26895    11.31144    31.53126
   487  O   6.0   -0.25    2.08    1.84    30.68568    10.83996    31.89355
   488  H   1.0    0.07    1.08    1.44    33.67020    12.82152    32.75070
   489  H   1.0    0.07    1.08    1.44    34.29529     9.65059    31.63783
   490  H   1.0    0.05    0.95    1.42    33.72898    12.21933    29.63379
   491  H   1.0    0.11    1.00    1.43    30.19196     9.41437    30.77941
   492  C   4.0    0.01    3.94    3.53    25.49161     4.27144    26.51289
   493  O   6.0   -0.28    2.02    1.83    26.81820     3.30451    28.48342
   494  H   1.0    0.06    1.00    1.43    26.22335     6.03663    25.87230
   495  H   1.0    0.05    1.00    1.43    23.57417     4.54799    27.09619
   496  H   1.0    0.04    1.01    1.43    25.72173     2.79015    25.16031
   497  H   1.0    0.11    1.04    1.43    28.54058     3.05251    28.02503
   498  C   4.0    0.01    3.89    3.44    29.23340    14.73451    27.52765
   499  O   6.0   -0.26    2.01    1.83    27.66257    14.18848    29.71973
   500  H   1.0    0.04    0.98    1.43    28.85047    13.43079    25.98700
   501  H   1.0    0.05    1.00    1.43    28.90082    16.64410    26.95221
   502  H   1.0    0.05    0.99    1.43    31.21881    14.69026    27.96229
   503  H   1.0    0.14    1.07    1.44    28.13080    12.57311    30.33290
   504  C   4.0    0.01    3.91    3.48    14.44710    18.40571    42.16678
   505  O   6.0   -0.23    1.98    1.82    13.44925    20.60425    43.49067
   506  H   1.0    0.07    1.01    1.43    15.57883    19.10736    40.70312
   507  H   1.0    0.05    1.01    1.43    12.90767    17.40777    41.45439
   508  H   1.0    0.04    1.01    1.43    15.50767    17.39696    43.47183
   509  H   1.0    0.12    1.00    1.43    12.55752    20.07429    45.02330
   510  C   4.0    0.03    3.07    3.02    20.21746    25.25693    55.55170
   511  O   6.0   -0.24    1.02    1.80    21.33901    23.48611    53.62779
   512  H   1.0    0.05    1.98    2.45    20.62896    27.04382    55.62075
   513  H   1.0    0.03    1.61    1.71    21.48061    27.31510    56.38542
   514  H   1.0    0.04    0.50    1.40    19.95397    23.81499    57.83985
   515  H   1.0    0.09    0.13    1.40    18.30935    23.86086    52.65034
   516  O   6.0   -0.31    1.98    1.82    28.45450    12.55225    18.49723
   517  H   1.0    0.15    0.99    1.43    29.89491    13.56937    18.44473
   518  H   1.0    0.15    1.00    1.43    27.21288    13.67519    19.00609
   519  O   6.0   -0.31    2.02    1.83    19.77643    32.79486    15.96663
   520  H   1.0    0.15    1.01    1.43    21.07137    33.92052    15.79304
   521  H   1.0    0.16    1.00    1.43    18.33995    33.72761    15.93625
   522  O   6.0   -0.29    2.01    1.83     9.54362    18.36346    36.65091
   523  H   1.0    0.16    1.03    1.43    11.06247    19.14494    36.43634
   524  H   1.0    0.17    1.04    1.43     8.67063    19.25551    37.85287
   525  O   6.0   -0.27    1.96    1.82    18.52153    27.66079    41.62191
   526  H   1.0    0.15    1.00    1.43    19.88805    28.22367    40.67656
   527  H   1.0    0.15    1.01    1.43    17.37334    29.06663    41.56456
   528  O   6.0   -0.32    1.99    1.82    27.29569     9.70042    22.38470
   529  H   1.0    0.14    1.00    1.43    28.72387    10.63426    22.42782
   530  H   1.0    0.16    1.00    1.43    25.79651    10.53995    22.51683
   531  N   5.0   -0.20    3.24    1.97    45.36497    26.07407    65.37522
   532  C   4.0    0.03    4.25    4.10    46.40746    28.61724    65.19461
   533  C   4.0    0.07    3.23    3.04    44.87985    30.44173    66.81002
   534  O   6.0   -0.29    1.13    1.80    42.57053    30.49658    66.75406
   535  C   4.0   -0.03    4.34    4.28    46.26887    29.43403    62.44921
   536  C   4.0   -0.04    4.23    4.06    47.55294    31.89705    61.96186
   537  C   4.0    0.25    3.14    3.03    47.48027    32.60408    59.18388
   538  O   6.0   -0.29    1.20    1.80    48.49508    34.61108    58.63038
   539  O   6.0   -0.27    1.23    1.80    46.66154    31.10461    57.57738
   540  H   1.0    0.09    1.04    1.43    44.87701    25.00500    64.00193
   541  H   1.0    0.03    1.07    1.44    48.33898    28.52705    65.74825
   542  H   1.0    0.05    1.01    1.43    47.15806    27.90281    61.28378
   543  H   1.0    0.06    1.06    1.44    44.29749    29.51162    62.04902
   544  H   1.0    0.05    1.04    1.43    46.58045    33.39158    62.99258
   545  H   1.0    0.04    1.02    1.43    49.53798    31.94478    62.56732
   546  N   5.0   -0.17    3.41    2.03    45.48398    54.62414    47.38674
   547  C   4.0    0.02    4.41    4.39    44.60250    52.75842    45.53286
   548  C   4.0    0.07    3.21    3.04    42.29831    53.63520    44.01020
   549  O   6.0   -0.31    1.14    1.80    41.50274    52.23036    42.28230
   550  C   4.0   -0.04    4.41    4.40    43.86387    50.51946    47.16997
   551  C   4.0   -0.04    4.34    4.27    42.89154    51.75531    49.53569
   552  C   4.0   -0.01    4.25    4.11    44.65758    53.94149    50.00522
   553  H   1.0    0.04    1.07    1.44    45.93808    52.31123    44.11778
   554  H   1.0    0.05    1.05    1.44    42.42983    49.45815    46.27840
   555  H   1.0    0.04    1.04    1.43    45.48486    49.37450    47.57725
   556  H   1.0    0.05    1.05    1.44    41.01296    52.36379    49.27086
   557  H   1.0    0.05    1.04    1.43    42.79910    50.46301    51.08216
   558  H   1.0    0.04    1.04    1.43    43.70759    55.49063    50.84186
   559  H   1.0    0.04    1.03    1.43    46.38529    53.48448    50.95055
   560  C   4.0    0.02    3.93    3.50    29.73626     1.54949    41.76842
   561  O   6.0   -0.27    2.07    1.83    29.58043    -1.04757    41.36276
   562  H   1.0    0.05    0.99    1.43    30.62943     1.97401    43.54255
   563  H   1.0    0.06    0.99    1.43    27.93022     2.49922    41.62672
   564  H   1.0    0.05    1.01    1.43    30.93391     2.20723    40.29147
   565  H   1.0    0.12    1.05    1.44    28.66122    -1.80066    42.70162
   566  C   4.0    0.02    3.93    3.50    14.87765    34.07234    41.76842
   567  O   6.0   -0.27    2.07    1.83    14.72182    31.47529    41.36276
   568  H   1.0    0.05    0.99    1.43    15.77081    34.49687    43.54255
   569  H   1.0    0.06    0.99    1.43    13.07160    35.02208    41.62672
   570  H   1.0    0.06    1.01    1.43    16.07530    34.73009    40.29147
   571  H   1.0    0.12    1.05    1.44    13.80260    30.72220    42.70162
   572  C   4.0   -0.00    3.91    3.48    27.34990    -0.49706    34.70824
   573  O   6.0   -0.27    2.04    1.83    29.32839    -1.52963    36.20315
   574  H   1.0    0.04    0.99    1.43    26.49821     1.13414    35.62745
   575  H   1.0    0.04    0.99    1.43    25.91581    -1.91156    34.38920
   576  H   1.0    0.04    1.01    1.43    28.11878    -0.01696    32.96908
   577  H   1.0    0.14    1.05    1.44    28.72876    -1.94758    37.85447
   578  C   4.0    0.01    3.91    3.48    12.49129    32.02579    34.70824
   579  O   6.0   -0.26    2.04    1.83    14.46978    30.99322    36.20315
   580  H   1.0    0.04    0.99    1.43    11.63959    33.65699    35.62745
   581  H   1.0    0.05    0.99    1.43    11.05720    30.61130    34.38920
   582  H   1.0    0.06    1.01    1.43    13.26016    32.50589    32.96908
   583  H   1.0    0.14    1.05    1.44    13.87014    30.57528    37.85447
   584  C   4.0    0.01    3.93    3.50    48.04075    37.50431    26.62075
   585  O   6.0   -0.26    1.98    1.82    48.57658    37.76699    29.12777
   586  H   1.0    0.04    1.01    1.43    47.12295    39.17983    26.02991
   587  H   1.0    0.05    1.01    1.43    49.74807    37.28572    25.61187
   588  H   1.0    0.04    0.98    1.43    46.74727    35.90596    26.33686
   589  H   1.0    0.11    1.00    1.43    46.97301    37.96875    30.11288
   590  C   4.0    0.01    3.93    3.51    20.06714    37.50431    26.62075
   591  O   6.0   -0.25    2.02    1.83    20.60297    37.76699    29.12777
   592  H   1.0    0.04    1.01    1.43    19.14934    39.17983    26.02991
   593  H   1.0    0.05    1.02    1.43    21.77445    37.28572    25.61187
   594  H   1.0    0.04    0.98    1.43    18.77365    35.90596    26.33686
   595  H   1.0    0.11    1.00    1.43    18.99940    37.96875    30.11288
   596  C   4.0    0.01    3.93    3.51    34.92575     4.98145    26.62075
   597  O   6.0   -0.25    2.02    1.83    35.46158     5.24413    29.12777
   598  H   1.0    0.04    1.01    1.43    34.00795     6.65697    26.02991
   599  H   1.0    0.05    1.02    1.43    36.63307     4.76286    25.61187
   600  H   1.0    0.03    0.98    1.43    33.63226     3.38310    26.33686
   601  H   1.0    0.11    1.00    1.43    33.85801     5.44589    30.11288
   602  C   4.0    0.00    3.94    3.52    16.33061    34.41608    21.23532
   603  O   6.0   -0.27    2.02    1.83    18.00936    35.98738    19.92765
   604  H   1.0    0.06    1.00    1.43    17.18090    32.59490    21.32787
   605  H   1.0    0.04    1.01    1.43    16.06978    35.20176    23.03252
   606  H   1.0    0.04    1.01    1.43    14.63602    34.39057    20.18540
   607  H   1.0    0.12    1.04    1.43    17.40395    37.64547    19.84491
   608  C   4.0    0.00    3.94    3.52    44.30423    34.41608    21.23532
   609  O   6.0   -0.26    2.01    1.83    45.98298    35.98738    19.92765
   610  H   1.0    0.06    1.00    1.43    45.15451    32.59490    21.32787
   611  H   1.0    0.04    1.01    1.43    44.04339    35.20176    23.03252
   612  H   1.0    0.04    1.01    1.43    42.60964    34.39057    20.18540
   613  H   1.0    0.12    1.04    1.43    45.37757    37.64547    19.84491
   614  C   4.0    0.00    3.93    3.50    14.77801     8.26226    56.30543
   615  O   6.0   -0.26    2.00    1.83    14.39000     5.87971    57.37204
   616  H   1.0    0.04    1.00    1.43    14.07146     9.61087    57.65276
   617  H   1.0    0.04    0.99    1.43    13.71515     8.45775    54.58480
   618  H   1.0    0.04    1.00    1.43    16.74668     8.60491    55.97871
   619  H   1.0    0.12    1.04    1.43    15.09420     4.66087    56.27942
   620  C   4.0    0.01    3.93    3.50    23.19406    36.83488    11.02991
   621  O   6.0   -0.24    2.02    1.83    22.80605    34.45234    12.09652
   622  H   1.0    0.04    1.00    1.43    22.48752    38.18350    12.37724
   623  H   1.0    0.04    0.99    1.43    22.13121    37.03037     9.30928
   624  H   1.0    0.05    1.00    1.43    25.16273    37.17754    10.70319
   625  H   1.0    0.14    1.05    1.44    23.51025    33.23350    11.00390
   626  C   4.0    0.01    3.93    3.50    27.89301    40.78511    56.30543
   627  O   6.0   -0.25    2.02    1.83    27.50500    38.40257    57.37204
   628  H   1.0    0.04    1.00    1.43    27.18646    42.13373    57.65276
   629  H   1.0    0.04    0.99    1.43    26.83016    40.98061    54.58480
   630  H   1.0    0.05    1.00    1.43    29.86168    41.12777    55.97871
   631  H   1.0    0.14    1.05    1.44    28.20920    37.18373    56.27942
   632  C   4.0    0.02    3.94    3.53    44.30049    37.65570    34.95108
   633  O   6.0   -0.27    2.24    1.87    43.74226    40.10499    35.61843
   634  H   1.0    0.05    0.99    1.43    45.29047    36.61374    36.40960
   635  H   1.0    0.04    0.99    1.43    42.62788    36.61834    34.41692
   636  H   1.0    0.04    1.00    1.43    45.48379    37.75472    33.28722
   637  H   1.0    0.15    1.11    1.44    42.65824    40.07723    37.10621
   638  C   4.0    0.02    3.94    3.53    16.32687    37.65570    34.95108
   639  O   6.0   -0.27    2.24    1.87    15.76864    40.10499    35.61843
   640  H   1.0    0.05    0.99    1.43    17.31685    36.61374    36.40960
   641  H   1.0    0.04    0.99    1.43    14.65427    36.61834    34.41692
   642  H   1.0    0.05    1.00    1.43    17.51018    37.75472    33.28722
   643  H   1.0    0.15    1.11    1.44    14.68462    40.07723    37.10621
   644  C   4.0    0.04    4.34    4.28    46.38395    43.83429    31.53126
   645  O   6.0   -0.25    2.08    1.84    43.80069    43.36282    31.89355
   646  H   1.0    0.06    1.08    1.44    46.78521    45.34438    32.75070
   647  H   1.0    0.05    1.08    1.44    47.41029    42.17345    31.63783
   648  H   1.0    0.03    0.95    1.42    46.84398    44.74219    29.63379
   649  H   1.0    0.11    1.00    1.43    43.30697    41.93723    30.77941
   650  C   4.0    0.05    4.35    4.28     5.29533    11.31144    31.53126
   651  O   6.0   -0.26    2.06    1.83     2.71207    10.83996    31.89355
   652  H   1.0    0.08    1.08    1.44     5.69659    12.82152    32.75070
   653  H   1.0    0.06    1.08    1.44     6.32167     9.65059    31.63783
   654  H   1.0    0.05    0.95    1.42     5.75537    12.21933    29.63379
   655  H   1.0    0.11    1.00    1.43     2.21835     9.41437    30.77941
   656  C   4.0    0.05    4.35    4.28    18.41033    43.83429    31.53126
   657  O   6.0   -0.25    2.01    1.83    15.82707    43.36282    31.89355
   658  H   1.0    0.05    1.08    1.44    18.81159    45.34438    32.75070
   659  H   1.0    0.07    1.08    1.44    19.43667    42.17345    31.63783
   660  H   1.0    0.04    0.95    1.42    18.87037    44.74219    29.63379
   661  H   1.0    0.11    1.00    1.43    15.33335    41.93723    30.77941
   662  C   4.0    0.01    3.95    3.53    38.60661    36.79430    26.51289
   663  O   6.0   -0.26    2.03    1.83    39.93320    35.82737    28.48342
   664  H   1.0    0.05    1.00    1.43    39.33835    38.55949    25.87230
   665  H   1.0    0.05    1.00    1.43    36.68917    37.07085    27.09619
   666  H   1.0    0.04    1.01    1.43    38.83674    35.31301    25.16031
   667  H   1.0    0.11    1.04    1.43    41.65558    35.57536    28.02503
   668  C   4.0    0.01    3.95    3.53    10.63300    36.79430    26.51289
   669  O   6.0   -0.26    2.03    1.83    11.95959    35.82737    28.48342
   670  H   1.0    0.05    1.00    1.43    11.36474    38.55949    25.87230
   671  H   1.0    0.05    1.00    1.43     8.71556    37.07085    27.09619
   672  H   1.0    0.04    1.01    1.43    10.86312    35.31301    25.16031
   673  H   1.0    0.11    1.04    1.43    13.68197    35.57536    28.02503
   674  C   4.0    0.00    3.89    3.44    42.34840    47.25737    27.52765
   675  O   6.0   -0.26    2.01    1.83    40.77758    46.71133    29.71973
   676  H   1.0    0.05    0.98    1.43    41.96548    45.95365    25.98700
   677  H   1.0    0.05    1.00    1.43    42.01582    49.16696    26.95221
   678  H   1.0    0.04    0.99    1.43    44.33382    47.21312    27.96229
   679  H   1.0    0.14    1.07    1.44    41.24580    45.09597    30.33290
   680  C   4.0    0.00    3.88    3.44     1.25978    14.73451    27.52765
   681  O   6.0   -0.25    1.97    1.82    -0.31104    14.18848    29.71973
   682  H   1.0    0.04    0.98    1.43     0.87686    13.43079    25.98700
   683  H   1.0    0.05    1.00    1.43     0.92721    16.64410    26.95221
   684  H   1.0    0.05    0.99    1.43     3.24520    14.69026    27.96229
   685  H   1.0    0.14    1.07    1.44     0.15718    12.57311    30.33290
   686  C   4.0   -0.01    3.91    3.48    55.53572    50.92857    42.16678
   687  O   6.0   -0.26    1.95    1.82    54.53787    53.12711    43.49067
   688  H   1.0    0.05    1.01    1.43    56.66744    51.63022    40.70312
   689  H   1.0    0.04    1.01    1.43    53.99629    49.93063    41.45439
   690  H   1.0    0.04    1.01    1.43    56.59628    49.91982    43.47183
   691  H   1.0    0.11    1.00    1.43    53.64614    52.59715    45.02330
   692  C   4.0    0.01    3.91    3.48    42.42072    18.40571    42.16678
   693  O   6.0   -0.23    1.98    1.82    41.42287    20.60425    43.49067
   694  H   1.0    0.07    1.01    1.43    43.55244    19.10736    40.70312
   695  H   1.0    0.05    1.01    1.43    40.88129    17.40777    41.45439
   696  H   1.0    0.04    1.01    1.43    43.48128    17.39696    43.47183
   697  H   1.0    0.12    1.00    1.43    40.53113    20.07429    45.02330
   698  C   4.0    0.03    3.07    3.02    43.49212    21.30670    10.27618
   699  O   6.0   -0.29    0.99    1.80    44.61367    19.53588     8.35227
   700  H   1.0    0.05    1.98    2.45    43.90363    23.09359    10.34523
   701  H   1.0    0.03    1.61    1.71    44.75528    23.36486    11.10990
   702  H   1.0    0.04    0.50    1.40    43.22864    19.86476    12.56433
   703  H   1.0    0.08    0.13    1.40    41.58401    19.91063     7.37482
   704  O   6.0   -0.32    2.06    1.83    37.25468    45.59373    15.76302
   705  H   1.0    0.13    0.99    1.43    38.64271    45.61868    14.72692
   706  H   1.0    0.14    1.01    1.43    35.99472    46.56711    15.24026
   707  O   6.0   -0.32    2.05    1.83    28.83863    17.02110    61.03854
   708  H   1.0    0.14    1.00    1.43    30.22666    17.04605    60.00244
   709  H   1.0    0.14    1.01    1.43    27.57866    17.99449    60.51579
   710  O   6.0   -0.31    2.00    1.83    41.56950    45.07511    18.49723
   711  H   1.0    0.14    0.99    1.43    43.00991    46.09223    18.44473
   712  H   1.0    0.16    1.01    1.43    40.32788    46.19804    19.00609
   713  O   6.0   -0.34    2.00    1.83    24.47538    36.74509    61.24215
   714  H   1.0    0.15    1.01    1.43    25.77032    37.87075    61.06856
   715  H   1.0    0.13    1.00    1.43    23.03890    37.67784    61.21177
   716  O   6.0   -0.32    2.01    1.83    47.75004    32.79486    15.96663
   717  H   1.0    0.14    1.00    1.43    49.04498    33.92052    15.79304
   718  H   1.0    0.16    1.00    1.43    46.31356    33.72761    15.93625
   719  O   6.0   -0.33    1.96    1.82    50.63224    50.88632    36.65091
   720  H   1.0    0.13    0.99    1.43    52.15109    51.66780    36.43634
   721  H   1.0    0.13    0.99    1.43    49.75925    51.77836    37.85287
   722  O   6.0   -0.30    2.01    1.83    37.51723    18.36346    36.65091
   723  H   1.0    0.17    1.03    1.43    39.03609    19.14494    36.43634
   724  H   1.0    0.17    1.04    1.43    36.64424    19.25551    37.85287
   725  O   6.0   -0.29    1.96    1.82    33.38014    -4.86206    41.62191
   726  H   1.0    0.13    0.99    1.43    34.74666    -4.29918    40.67656
   727  H   1.0    0.14    1.01    1.43    32.23195    -3.45622    41.56456
   728  O   6.0   -0.27    1.96    1.82    46.49515    27.66079    41.62191
   729  H   1.0    0.15    1.00    1.43    47.86166    28.22367    40.67656
   730  H   1.0    0.15    1.01    1.43    45.34696    29.06663    41.56456
   731  O   6.0   -0.31    1.96    1.82    33.08948    15.98556    55.65163
   732  H   1.0    0.12    0.98    1.43    34.42858    17.14876    55.42917
   733  H   1.0    0.12    0.96    1.43    32.86227    15.30844    53.94907
   734  O   6.0   -0.30    1.94    1.82    33.92071    11.78325    59.31851
   735  H   1.0    0.12    0.95    1.42    35.72609    11.28598    59.57218
   736  H   1.0    0.13    0.97    1.43    33.72798    13.35726    60.22377
   737  O   6.0   -0.31    1.93    1.82    42.33677    40.35588    14.04299
   738  H   1.0    0.12    0.95    1.42    44.14215    39.85861    14.29666
   739  H   1.0    0.13    0.97    1.43    42.14403    41.92988    14.94825
   740  O   6.0   -0.30    1.89    1.82    14.36315    40.35588    14.04299
   741  H   1.0    0.12    0.95    1.42    16.16853    39.85861    14.29666
   742  H   1.0    0.12    0.97    1.43    14.17042    41.92988    14.94825
   743  O   6.0   -0.29    1.91    1.82    18.72403    32.03674    52.79315
   744  H   1.0    0.13    0.95    1.42    20.31157    32.72948    52.09759
   745  H   1.0    0.14    0.97    1.43    17.27625    32.69946    51.93703
   746  O   6.0   -0.30    1.91    1.82    33.58265    -0.48611    52.79315
   747  H   1.0    0.13    0.95    1.42    35.17018     0.20662    52.09759
   748  H   1.0    0.14    0.97    1.43    32.13486     0.17660    51.93703
   749  O   6.0   -0.24    1.93    1.82    46.69765    32.03674    52.79315
   750  H   1.0    0.14    0.95    1.42    48.28518    32.72948    52.09759
   751  H   1.0    0.14    0.97    1.43    45.24987    32.69946    51.93703
   752  O   6.0   -0.26    1.93    1.82    41.99870    28.08651     7.51763
   753  H   1.0    0.13    0.95    1.42    43.58623    28.77925     6.82207
   754  H   1.0    0.13    0.97    1.43    40.55092    28.74923     6.66151
   755  O   6.0   -0.33    1.94    1.82    16.38698    23.50545    60.65517
   756  H   1.0    0.12    1.00    1.43    17.59832    24.36587    59.73276
   757  H   1.0    0.12    0.97    1.43    14.71371    24.22924    60.54124
   758  O   6.0   -0.33    1.97    1.82    39.66164    19.55522    15.37965
   759  H   1.0    0.13    1.00    1.43    40.87299    20.41564    14.45724
   760  H   1.0    0.13    0.97    1.43    37.98837    20.27900    15.26572
   761  O   6.0   -0.32    1.99    1.82    40.41069    42.22328    22.38470
   762  H   1.0    0.15    1.00    1.43    41.83887    43.15712    22.42782
   763  H   1.0    0.16    1.00    1.43    38.91151    43.06281    22.51683
   764  O   6.0   -0.33    1.97    1.82    12.43708    42.22328    22.38470
   765  H   1.0    0.14    0.99    1.43    13.86526    43.15712    22.42782
   766  H   1.0    0.16    1.00    1.43    10.93790    43.06281    22.51683
   767  N   5.0   -0.12    4.13    3.25    24.58678    36.04377    37.48414
   768  C   4.0   -0.01    4.27    4.14    24.11984    36.25044    34.83495
   769  C   4.0    0.16    3.38    3.07    26.16304    37.82088    33.57672
   770  O   6.0   -0.31    1.28    1.80    28.19166    38.13555    34.64450
   771  H   1.0    0.09    1.06    1.44    25.93098    37.20619    38.09991
   772  H   1.0    0.06    1.06    1.44    23.03591    36.40445    38.43689
   773  H   1.0    0.07    1.04    1.43    25.04948    34.22939    37.92160
   774  H   1.0    0.06    1.05    1.44    23.88715    34.44011    34.09061
   775  H   1.0    0.05    1.05    1.44    22.37425    37.20688    34.57554
   776  N   5.0   -0.15    3.50    2.08    25.52696    38.74161    31.37384
   777  C   4.0    0.05    4.51    4.55    27.24649    40.48433    30.11089
   778  C   4.0    0.15    3.50    3.11    25.74625    42.82743    29.23533
   779  O   6.0   -0.30    1.25    1.80    23.47080    42.72365    28.80822
   780  C   4.0   -0.03    4.17    3.94    28.78527    39.25870    27.99978
   781  S   6.0   -0.03    2.47    3.10    27.03424    38.11290    25.27945
   782  H   1.0    0.11    1.13    1.45    23.88041    38.59878    30.67598
   783  H   1.0    0.07    1.08    1.44    28.52052    41.18137    31.57834
   784  H   1.0    0.06    1.09    1.44    30.14459    40.59104    27.26922
   785  H   1.0    0.05    1.10    1.44    29.59948    37.53233    28.69691
   786  N   5.0   -0.15    3.49    2.07    27.12002    44.94187    29.12619
   787  C   4.0    0.03    4.34    4.28    26.04697    47.39275    28.62833
   788  C   4.0    0.16    3.39    3.08    26.42257    48.19300    25.82441
   789  O   6.0   -0.32    1.29    1.80    28.26915    47.58030    24.60318
   790  C   4.0   -0.07    4.17    3.94    27.28771    49.35496    30.30683
   791  H   1.0    0.11    1.14    1.45    28.84480    44.75664    29.41958
   792  H   1.0    0.05    1.06    1.44    24.01130    47.24265    29.00437
   793  H   1.0    0.05    1.04    1.43    29.20951    49.26089    29.99429
   794  H   1.0    0.04    1.01    1.43    26.76753    49.10299    32.24963
   795  H   1.0    0.05    1.03    1.43    26.78152    51.17680    29.87204
   796  N   5.0   -0.14    3.49    2.07    24.63974    49.74625    24.95805
   797  C   4.0    0.03    4.35    4.29    24.64585    50.74032    22.38662
   798  C   4.0    0.07    3.18    3.03    25.61071    53.49967    22.39223
   799  O   6.0   -0.29    1.13    1.80    26.28090    54.58664    24.28319
   800  C   4.0   -0.04    4.35    4.29    22.03987    50.41504    21.22285
   801  C   4.0   -0.01    3.56    3.14    21.37623    47.72148    20.91556
   802  C   4.0   -0.04    3.44    3.09    22.47708    46.35533    18.96396
   803  C   4.0   -0.04    3.43    3.09    19.87155    46.41893    22.70847
   804  C   4.0   -0.04    3.32    3.06    21.93757    43.81845    18.60317
   805  C   4.0   -0.04    3.33    3.06    19.38662    43.83215    22.43640
   806  C   4.0   -0.04    3.35    3.06    20.31021    42.56764    20.30612
   807  H   1.0    0.08    1.10    1.44    23.29987    50.22194    26.05636
   808  H   1.0    0.05    1.08    1.44    26.02344    49.71543    21.31407
   809  H   1.0    0.04    1.06    1.44    20.79023    51.43301    22.39973
   810  H   1.0    0.03    1.04    1.43    21.99252    51.28762    19.36940
   811  H   1.0    0.04    1.00    1.43    23.65342    47.41427    17.55712
   812  H   1.0    0.05    1.03    1.43    19.13852    47.49504    24.26904
   813  H   1.0    0.04    1.00    1.43    22.87023    42.82818    16.99753
   814  H   1.0    0.05    1.03    1.43    18.14012    42.89275    23.74644
   815  H   1.0    0.05    1.02    1.43    19.87251    40.58510    20.08004
   816  N   5.0   -0.11    4.13    3.24    52.56040    36.04377    37.48414
   817  C   4.0   -0.01    4.15    3.91    52.09346    36.25044    34.83495
   818  C   4.0    0.08    3.14    3.03    54.13666    37.82088    33.57672
   819  O   6.0   -0.30    1.16    1.80    56.16527    38.13555    34.64450
   820  H   1.0    0.08    1.06    1.44    53.90459    37.20619    38.09991
   821  H   1.0    0.06    1.06    1.44    51.00952    36.40445    38.43689
   822  H   1.0    0.07    1.04    1.43    53.02309    34.22939    37.92160
   823  H   1.0    0.06    1.05    1.44    51.86076    34.44011    34.09061
   824  H   1.0    0.04    1.05    1.44    50.34786    37.20688    34.57554
   825  N   5.0   -0.21    3.24    1.97    -2.44665    38.74161    31.37384
   826  C   4.0    0.04    4.27    4.13    -0.72713    40.48433    30.11089
   827  C   4.0    0.08    3.27    3.05    -2.22736    42.82743    29.23533
   828  O   6.0   -0.29    1.15    1.80    -4.50282    42.72365    28.80822
   829  C   4.0   -0.03    4.17    3.94     0.81166    39.25870    27.99978
   830  S   6.0   -0.03    2.44    3.10    -0.93938    38.11290    25.27945
   831  H   1.0    0.11    1.05    1.44    -4.09320    38.59878    30.67598
   832  H   1.0    0.06    1.06    1.44     0.54690    41.18137    31.57834
   833  H   1.0    0.06    1.09    1.44     2.17098    40.59104    27.26922
   834  H   1.0    0.04    1.10    1.44     1.62586    37.53233    28.69691
   835  N   5.0   -0.12    4.13    3.24    39.44540     3.52091    37.48414
   836  C   4.0   -0.02    4.27    4.14    38.97846     3.72758    34.83495
   837  C   4.0    0.15    3.38    3.07    41.02165     5.29802    33.57672
   838  O   6.0   -0.30    1.28    1.80    43.05027     5.61269    34.64450
   839  H   1.0    0.09    1.06    1.44    40.78959     4.68333    38.09991
   840  H   1.0    0.06    1.06    1.44    37.89452     3.88160    38.43689
   841  H   1.0    0.06    1.04    1.43    39.90809     1.70653    37.92160
   842  H   1.0    0.05    1.05    1.44    38.74576     1.91725    34.09061
   843  H   1.0    0.05    1.05    1.44    37.23286     4.68402    34.57554
   844  N   5.0   -0.15    3.50    2.08    40.38558     6.21875    31.37384
   845  C   4.0    0.05    4.50    4.54    42.10510     7.96147    30.11089
   846  C   4.0    0.15    3.45    3.09    40.60486    10.30458    29.23533
   847  O   6.0   -0.30    1.24    1.80    38.32941    10.20079    28.80822
   848  C   4.0   -0.02    4.07    3.75    43.64388     6.73584    27.99978
   849  S   6.0   -0.05    2.35    3.10    41.89285     5.59004    25.27945
   850  H   1.0    0.11    1.13    1.45    38.73903     6.07592    30.67598
   851  H   1.0    0.07    1.08    1.44    43.37913     8.65851    31.57834
   852  H   1.0    0.06    1.08    1.44    45.00320     8.06818    27.26922
   853  H   1.0    0.05    1.10    1.44    44.45809     5.00948    28.69691
   854  H   1.0    0.05    1.00    1.43    42.95951     5.24262    23.30869
   855  N   5.0   -0.15    3.48    2.07    41.97863    12.41901    29.12619
   856  C   4.0    0.04    4.34    4.28    40.90558    14.86989    28.62833
   857  C   4.0    0.16    3.39    3.08    41.28118    15.67015    25.82441
   858  O   6.0   -0.30    1.23    1.80    43.12776    15.05745    24.60318
   859  C   4.0   -0.06    4.18    3.97    42.14633    16.83210    30.30683
   860  H   1.0    0.11    1.14    1.45    43.70341    12.23379    29.41958
   861  H   1.0    0.06    1.06    1.44    38.86991    14.71979    29.00437
   862  H   1.0    0.06    1.05    1.44    44.06812    16.73803    29.99429
   863  H   1.0    0.06    1.01    1.43    41.62614    16.58013    32.24963
   864  H   1.0    0.06    1.03    1.43    41.64013    18.65394    29.87204
   865  N   5.0   -0.14    3.50    2.07    39.49835    17.22339    24.95805
   866  C   4.0    0.03    4.44    4.44    39.50446    18.21747    22.38662
   867  C   4.0    0.15    3.41    3.08    40.46932    20.97681    22.39223
   868  O   6.0   -0.31    1.31    1.80    41.13952    22.06378    24.28319
   869  C   4.0   -0.03    4.36    4.32    36.89848    17.89218    21.22285
   870  C   4.0   -0.01    3.56    3.14    36.23484    15.19862    20.91556
   871  C   4.0   -0.03    3.44    3.09    37.33569    13.83247    18.96396
   872  C   4.0   -0.03    3.43    3.09    34.73016    13.89607    22.70847
   873  C   4.0   -0.04    3.31    3.06    36.79619    11.29559    18.60317
   874  C   4.0   -0.03    3.33    3.06    34.24523    11.30930    22.43640
   875  C   4.0   -0.03    3.34    3.06    35.16882    10.04478    20.30612
   876  H   1.0    0.10    1.10    1.44    38.15848    17.69909    26.05636
   877  H   1.0    0.05    1.08    1.44    40.88205    17.19258    21.31407
   878  H   1.0    0.06    1.06    1.44    35.64884    18.91015    22.39973
   879  H   1.0    0.05    1.04    1.43    36.85113    18.76477    19.36940
   880  H   1.0    0.06    1.00    1.43    38.51203    14.89141    17.55712
   881  H   1.0    0.06    1.03    1.43    33.99714    14.97218    24.26904
   882  H   1.0    0.05    1.00    1.43    37.72884    10.30532    16.99753
   883  H   1.0    0.05    1.03    1.43    32.99873    10.36989    23.74644
   884  H   1.0    0.05    1.02    1.43    34.73113     8.06224    20.08004
   885  N   5.0   -0.15    3.48    2.07    40.66602    22.12384    20.09970
   886  C   4.0    0.03    4.46    4.47    41.70852    24.66701    19.91909
   887  C   4.0    0.16    3.49    3.11    40.18091    26.49150    21.53450
   888  O   6.0   -0.32    1.26    1.80    37.87158    26.54634    21.47854
   889  C   4.0   -0.04    4.35    4.29    41.56992    25.48380    17.17369
   890  C   4.0   -0.03    4.23    4.06    42.85399    27.94682    16.68634
   891  C   4.0    0.24    3.14    3.03    42.78132    28.65384    13.90836
   892  O   6.0   -0.29    1.21    1.80    43.79613    30.66085    13.35486
   893  O   6.0   -0.29    1.23    1.80    41.96259    27.15438    12.30186
   894  H   1.0    0.09    1.12    1.45    40.17806    21.05476    18.72641
   895  H   1.0    0.05    1.08    1.44    43.64003    24.57682    20.47273
   896  H   1.0    0.04    1.01    1.43    42.45911    23.95257    16.00826
   897  H   1.0    0.05    1.06    1.44    39.59854    25.56138    16.77350
   898  H   1.0    0.05    1.04    1.43    41.88150    29.44135    17.71706
   899  H   1.0    0.05    1.02    1.43    44.83903    27.99455    17.29180
   900  N   5.0   -0.16    3.42    2.03    41.60561    28.15377    22.90368
   901  C   4.0    0.01    4.30    4.19    40.43736    30.02813    24.44719
   902  C   4.0    0.15    3.32    3.06    39.59454    29.13148    27.06161
   903  O   6.0   -0.31    1.22    1.80    38.74125    30.65025    28.61493
   904  H   1.0    0.11    1.12    1.45    43.42403    28.06417    22.90703
   905  H   1.0    0.04    1.05    1.44    41.73079    31.54076    24.69470
   906  H   1.0    0.05    1.06    1.44    38.77446    30.64893    23.49821
   907  N   5.0   -0.13    3.51    2.08    39.75298    26.65581    27.46476
   908  C   4.0    0.04    4.42    4.41    38.96875    25.47701    29.81989
   909  C   4.0    0.16    3.43    3.09    41.25837    25.18679    31.58229
   910  O   6.0   -0.30    1.27    1.80    43.38310    24.73845    30.79910
   911  C   4.0   -0.03    4.34    4.27    37.76219    22.89520    29.15044
   912  C   4.0   -0.02    4.25    4.09    37.03674    21.36012    31.46865
   913  C   4.0    0.24    3.15    3.03    35.57299    19.02137    30.73947
   914  O   6.0   -0.31    1.21    1.80    34.85171    18.60801    28.59038
   915  O   6.0   -0.28    1.19    1.80    35.05200    17.43486    32.53997
   916  H   1.0    0.11    1.13    1.45    40.46589    25.60919    26.16540
   917  H   1.0    0.06    1.07    1.44    37.48987    26.57400    30.67038
   918  H   1.0    0.07    1.06    1.44    36.06046    23.22380    28.19007
   919  H   1.0    0.07    1.07    1.44    39.03604    21.93380    28.01914
   920  H   1.0    0.06    1.06    1.44    38.65020    20.70883    32.42536
   921  H   1.0    0.08    1.05    1.44    35.88163    22.48455    32.68070
   922  N   5.0   -0.15    3.47    2.06    40.69110    25.32005    34.03043
   923  C   4.0    0.05    4.39    4.36    42.54424    24.84387    35.99423
   924  C   4.0    0.17    3.47    3.10    43.66721    22.23816    35.76521
   925  O   6.0   -0.31    1.27    1.80    42.26428    20.33965    35.44331
   926  C   4.0    0.05    4.14    3.89    41.29244    25.09013    38.71994
   927  O   6.0   -0.22    2.10    1.84    42.83695    24.31051    40.69133
   928  H   1.0    0.11    1.14    1.45    38.97303    25.62966    34.47053
   929  H   1.0    0.07    1.08    1.44    43.95549    26.24781    35.99022
   930  H   1.0    0.05    0.99    1.43    40.67298    27.10220    38.89237
   931  H   1.0    0.07    1.05    1.44    39.72436    23.91123    38.75690
   932  H   1.0    0.14    1.06    1.44    42.02154    24.55617    42.21993
   933  N   5.0   -0.13    3.57    2.13    46.09534    22.06049    36.10533
   934  C   4.0    0.05    4.53    4.58    47.51660    19.73073    36.16322
   935  C   4.0    0.15    3.46    3.10    48.95183    19.50980    38.64963
   936  O   6.0   -0.30    1.28    1.80    49.62697    21.41458    39.84641
   937  C   4.0   -0.03    4.18    3.97    49.14451    19.34377    33.89210
   938  S   6.0   -0.00    2.58    3.10    51.09836    22.14798    33.21915
   939  H   1.0    0.12    1.15    1.45    47.09986    23.55098    36.36118
   940  H   1.0    0.06    1.09    1.44    46.11820    18.23441    36.29718
   941  H   1.0    0.05    1.08    1.44    50.41801    17.77039    34.08994
   942  H   1.0    0.05    1.11    1.44    48.15975    18.94440    32.15446
   943  N   5.0   -0.15    3.52    2.09    49.50478    17.18856    39.33783
   944  C   4.0    0.04    4.35    4.29    51.12066    16.61808    41.51089
   945  C   4.0    0.09    3.27    3.05    52.56648    14.25555    40.73584
   946  O   6.0   -0.30    1.19    1.80    51.38510    12.38989    39.88305
   947  C   4.0   -0.03    4.32    4.24    49.60047    16.30753    43.93760
   948  C   4.0    0.15    3.27    3.05    51.13242    15.06917    46.02156
   949  O   6.0   -0.31    1.27    1.80    51.69751    12.84235    45.85110
   950  N   5.0   -0.20    3.22    1.96    51.64404    16.45380    48.00877
   951  H   1.0    0.11    1.13    1.45    48.75094    15.79232    38.47772
   952  H   1.0    0.05    1.07    1.44    52.37024    18.20966    41.67576
   953  H   1.0    0.06    1.04    1.44    48.93604    18.12417    44.51093
   954  H   1.0    0.05    1.05    1.44    48.04219    15.09965    43.52313
   955  H   1.0    0.12    1.08    1.44    51.27122    18.26151    48.00725
   956  H   1.0    0.10    1.05    1.44    52.62485    15.74086    49.38279
   957  N   5.0   -0.20    3.22    1.96    27.57609    -7.20281    34.03043
   958  C   4.0    0.04    4.17    3.95    29.42924    -7.67899    35.99423
   959  C   4.0    0.08    3.22    3.04    30.55221   -10.28470    35.76521
   960  O   6.0   -0.28    1.12    1.80    29.14928   -12.18320    35.44331
   961  C   4.0    0.04    4.14    3.88    28.17744    -7.43272    38.71994
   962  O   6.0   -0.24    2.08    1.84    29.72195    -8.21235    40.69133
   963  H   1.0    0.12    1.08    1.44    25.85802    -6.89319    34.47053
   964  H   1.0    0.04    1.08    1.44    30.84049    -6.27504    35.99022
   965  H   1.0    0.05    0.99    1.43    27.55798    -5.42066    38.89237
   966  H   1.0    0.06    1.05    1.44    26.60936    -8.61163    38.75690
   967  H   1.0    0.12    1.05    1.44    28.90654    -7.96668    42.21993
   968  N   5.0   -0.21    3.31    1.98    31.23672    54.58335    36.10533
   969  C   4.0    0.04    4.44    4.44    32.65799    52.25359    36.16322
   970  C   4.0    0.15    3.45    3.10    34.09322    52.03266    38.64963
   971  O   6.0   -0.29    1.23    1.80    34.76835    53.93744    39.84641
   972  C   4.0   -0.03    4.11    3.82    34.28590    51.86663    33.89210
   973  S   6.0   -0.05    2.42    3.10    36.23974    54.67084    33.21915
   974  H   1.0    0.10    1.07    1.44    32.24125    56.07384    36.36118
   975  H   1.0    0.05    1.08    1.44    31.25959    50.75727    36.29718
   976  H   1.0    0.06    1.08    1.44    35.55940    50.29325    34.08994
   977  H   1.0    0.05    1.08    1.44    33.30114    51.46726    32.15446
   978  H   1.0    0.05    1.00    1.43    38.09823    54.47609    31.93446
   979  N   5.0   -0.15    3.52    2.09    34.64617    49.71142    39.33783
   980  C   4.0    0.04    4.45    4.46    36.26205    49.14094    41.51089
   981  C   4.0    0.16    3.50    3.12    37.70787    46.77841    40.73584
   982  O   6.0   -0.30    1.32    1.80    36.52649    44.91275    39.88305
   983  C   4.0   -0.03    4.32    4.24    34.74186    48.83039    43.93760
   984  C   4.0    0.15    3.27    3.05    36.27381    47.59203    46.02156
   985  O   6.0   -0.32    1.31    1.80    36.83889    45.36521    45.85110
   986  N   5.0   -0.21    3.22    1.96    36.78542    48.97666    48.00877
   987  H   1.0    0.11    1.13    1.45    33.89233    48.31517    38.47772
   988  H   1.0    0.07    1.08    1.44    37.51163    50.73252    41.67576
   989  H   1.0    0.05    1.04    1.44    34.07743    50.64702    44.51093
   990  H   1.0    0.05    1.05    1.44    33.18358    47.62251    43.52313
   991  H   1.0    0.08    1.05    1.44    36.41261    50.78437    48.00725
   992  H   1.0    0.12    1.07    1.44    37.76624    48.26372    49.38279
   993  N   5.0   -0.15    3.46    2.05    40.18219    46.82323    40.93693
   994  C   4.0    0.04    4.50    4.54    41.67427    44.73195    39.79881
   995  C   4.0    0.16    3.39    3.08    41.33357    42.20526    41.25031
   996  O   6.0   -0.32    1.35    1.80    41.73336    40.24259    40.13578
   997  C   4.0   -0.02    4.30    4.20    44.49679    45.41440    39.63601
   998  C   4.0   -0.06    4.19    3.99    44.79431    47.55271    37.85294
   999  C   4.0   -0.08    4.17    3.94    45.63927    45.98051    42.19081
  1000  H   1.0    0.10    1.10    1.44    41.03603    48.28100    41.65443
  1001  H   1.0    0.06    1.07    1.44    41.04748    44.45947    37.87757
[...]
  1477  C   3.949    O 1478 1.653    N 1482 1.261    C 1476 0.958
  1478  O   1.990    C 1477 1.653    N 1482 0.190    C 1476 0.056
  1479  H   0.970    N 1475 0.961
  1480  H   0.996    C 1476 0.960
  1481  H   0.995    C 1476 0.951
  1482  N   3.443    C 1477 1.261    C 1483 0.987    H 1490 0.916    O 1478 0.190
  1483  C   3.964    N 1482 0.987    C 1484 0.986    C 1486 0.955    H 1491 0.918    O 1485 0.068
  1484  C   3.907    O 1485 1.899    C 1483 0.986    H 1816 0.951
  1485  O   2.051    C 1484 1.899    C 1483 0.068
  1486  C   3.982    C 1487 0.998    H 1492 0.972    H 1493 0.965    C 1483 0.955
  1487  C   3.996    C 1488 1.011    C 1489 1.004    C 1486 0.998    H 1494 0.967
  1488  C   3.993    C 1487 1.011    H 1495 0.983    H 1496 0.983    H 1497 0.975
  1489  C   3.991    C 1487 1.004    H 1498 0.986    H 1499 0.984    H 1500 0.980
  1490  H   0.959    N 1482 0.916
  1491  H   0.987    C 1483 0.918
  1492  H   0.997    C 1486 0.972
  1493  H   0.993    C 1486 0.965
  1494  H   0.999    C 1487 0.967
  1495  H   0.996    C 1488 0.983
  1496  H   0.998    C 1488 0.983
  1497  H   0.997    C 1488 0.975
  1498  H   0.997    C 1489 0.986
  1499  H   0.997    C 1489 0.984
  1500  H   0.998    C 1489 0.980
  1501  N   3.005    C 1502 1.026    H 1817 0.953    H 1509 0.952
  1502  C   3.986    N 1501 1.026    C 1503 0.977    H 1510 0.955    C 1505 0.946    O 1504 0.056
  1503  C   3.898    O 1504 1.899    C 1502 0.977    H 1818 0.956
  1504  O   2.031    C 1503 1.899    C 1502 0.056
  1505  C   3.992    C 1506 0.989    H 1512 0.975    H 1511 0.974    C 1502 0.946
  1506  C   3.995    C 1508 1.009    C 1507 1.008    C 1505 0.989    H 1513 0.967
  1507  C   3.991    C 1506 1.008    H 1515 0.984    H 1516 0.984    H 1514 0.983
  1508  C   3.995    C 1506 1.009    H 1519 0.984    H 1518 0.980    H 1517 0.978
  1509  H   0.968    N 1501 0.952
  1510  H   0.996    C 1502 0.955
  1511  H   0.996    C 1505 0.974
  1512  H   1.000    C 1505 0.975
  1513  H   0.997    C 1506 0.967
  1514  H   0.998    C 1507 0.983
  1515  H   1.000    C 1507 0.984
  1516  H   0.998    C 1507 0.984
  1517  H   0.999    C 1508 0.978
  1518  H   0.998    C 1508 0.980
  1519  H   1.000    C 1508 0.984
  1520  N   2.999    C 1521 1.020    H 1528 0.955    H 1819 0.947
  1521  C   3.985    N 1520 1.020    H 1529 0.965    C 1522 0.954    C 1524 0.939
  1522  C   3.949    O 1523 1.647    N 1539 1.258    C 1521 0.954
  1523  O   1.958    C 1522 1.647    N 1539 0.193
  1524  C   3.993    C 1526 1.006    C 1525 1.001    H 1530 0.969    C 1521 0.939
  1525  C   3.997    C 1527 1.016    C 1524 1.001    H 1531 0.977    H 1532 0.971
  1526  C   3.990    C 1524 1.006    H 1533 0.981    H 1535 0.980    H 1534 0.975
  1527  C   3.991    C 1525 1.016    H 1537 0.987    H 1538 0.984    H 1536 0.982
  1528  H   0.971    N 1520 0.955
  1529  H   0.998    C 1521 0.965
  1530  H   0.998    C 1524 0.969
  1531  H   0.998    C 1525 0.977
  1532  H   0.999    C 1525 0.971
  1533  H   0.999    C 1526 0.981
  1534  H   0.998    C 1526 0.975
  1535  H   0.997    C 1526 0.980
  1536  H   0.997    C 1527 0.982
  1537  H   0.998    C 1527 0.987
  1538  H   0.997    C 1527 0.984
  1539  N   3.483    C 1522 1.258    C 1540 0.992    C 1545 0.949    O 1523 0.193
  1540  C   3.974    N 1539 0.992    C 1541 0.986    C 1543 0.945    H 1546 0.935    O 1542 0.062
  1541  C   3.899    O 1542 1.882    C 1540 0.986    H 1820 0.948
  1542  O   2.063    C 1541 1.882    C 1540 0.062
  1543  C   3.983    C 1544 0.996    H 1547 0.977    H 1548 0.974    C 1540 0.945
  1544  C   3.989    C 1545 1.017    C 1543 0.996    H 1549 0.975    H 1550 0.970
  1545  C   3.959    C 1544 1.017    H 1552 0.965    H 1551 0.964    N 1539 0.949
  1546  H   0.992    C 1540 0.935
  1547  H   0.994    C 1543 0.977
  1548  H   0.994    C 1543 0.974
  1549  H   0.994    C 1544 0.975
  1550  H   0.993    C 1544 0.970
  1551  H   0.994    C 1545 0.964
  1552  H   0.993    C 1545 0.965
  1553  N   3.001    C 1554 1.023    H 1561 0.948    H 1821 0.948
  1554  C   3.989    N 1553 1.023    C 1555 1.005    C 1557 0.972    H 1562 0.911    O 1556 0.059
  1555  C   3.886    O 1556 1.838    C 1554 1.005    H 1822 0.952
  1556  O   2.061    C 1555 1.838    H 1779 0.060    C 1554 0.059
  1557  C   3.994    C 1558 0.972    C 1554 0.972    H 1563 0.956    H 1564 0.955    O 1559 0.053
  1558  C   3.946    O 1559 1.626    N 1560 1.320    C 1557 0.972
  1559  O   1.933    C 1558 1.626    N 1560 0.195    C 1557 0.053
  1560  N   3.412    C 1558 1.320    H 1565 0.923    H 1566 0.910    O 1559 0.195
  1561  H   0.968    N 1553 0.948
  1562  H   0.989    C 1554 0.911
  1563  H   0.992    C 1557 0.956
  1564  H   0.994    C 1557 0.955
  1565  H   0.956    N 1560 0.923
  1566  H   0.943    N 1560 0.910
  1567  N   3.012    C 1568 1.010    H 1784 0.954    H 1573 0.950
  1568  C   3.987    N 1567 1.010    C 1571 0.992    H 1574 0.964    C 1569 0.923    O 1570 0.052
  1569  C   3.951    O 1570 1.667    N 1577 1.289    C 1568 0.923
  1570  O   1.980    C 1569 1.667    N 1577 0.201    C 1568 0.052
  1571  C   3.962    C 1568 0.992    H 1575 0.971    H 1576 0.959    S 1572 0.956
  1572  S   2.299    S  938 1.221    C 1571 0.956
  1573  H   0.965    N 1567 0.950
  1574  H   0.998    C 1568 0.964
  1575  H   0.995    C 1571 0.971
  1576  H   0.989    C 1571 0.959
  1577  N   3.472    C 1569 1.289    C 1578 0.974    H 1585 0.918    O 1570 0.201
  1578  C   3.951    C 1579 0.982    N 1577 0.974    H 1586 0.954    C 1581 0.924    O 1580 0.056
  1579  C   3.890    O 1580 1.870    C 1578 0.982    H 1785 0.950
  1580  O   2.047    C 1579 1.870    C 1578 0.056
  1581  C   3.981    C 1583 1.006    C 1582 1.000    H 1587 0.965    C 1578 0.924
  1582  C   3.995    C 1584 1.014    C 1581 1.000    H 1588 0.976    H 1589 0.976
  1583  C   3.986    C 1581 1.006    H 1592 0.983    H 1591 0.977    H 1590 0.977
  1584  C   3.989    C 1582 1.014    H 1594 0.986    H 1595 0.985    H 1593 0.982
  1585  H   0.956    N 1577 0.918
  1586  H   0.990    C 1578 0.954
  1587  H   0.995    C 1581 0.965
  1588  H   0.998    C 1582 0.976
  1589  H   0.999    C 1582 0.976
  1590  H   0.997    C 1583 0.977
  1591  H   0.993    C 1583 0.977
  1592  H   0.997    C 1583 0.983
  1593  H   0.996    C 1584 0.982
  1594  H   0.997    C 1584 0.986
  1595  H   0.997    C 1584 0.985
  1596  N   2.984    C 1597 1.013    H 1603 0.954    H 1786 0.946
  1597  C   3.986    N 1596 1.013    C 1598 0.974    H 1604 0.954    C 1600 0.943    O 1599 0.063
  1598  C   3.898    O 1599 1.905    C 1597 0.974    H 1787 0.954
  1599  O   2.052    C 1598 1.905    C 1597 0.063
  1600  C   3.966    O 1601 1.001    C 1602 0.997    H 1605 0.959    C 1597 0.943
  1601  O   1.952    C 1600 1.001    H 1606 0.840
  1602  C   3.992    C 1600 0.997    H 1608 0.982    H 1607 0.980    H 1609 0.976
  1603  H   0.971    N 1596 0.954
  1604  H   0.995    C 1597 0.954
  1605  H   0.997    C 1600 0.959
  1606  H   0.882    O 1601 0.840
  1607  H   0.996    C 1602 0.980
  1608  H   0.998    C 1602 0.982
  1609  H   0.996    C 1602 0.976
  1610  N   2.987    C 1611 1.015    H 1788 0.957    H 1618 0.956
  1611  C   3.987    N 1610 1.015    C 1614 0.968    H 1619 0.957    C 1612 0.953
  1612  C   3.951    O 1613 1.603    N 1622 1.314    C 1611 0.953
  1613  O   1.897    C 1612 1.603    N 1622 0.191
  1614  C   3.991    C 1611 0.968    H 1620 0.963    C 1615 0.962    H 1621 0.954
  1615  C   3.938    O 1616 1.506    O 1617 1.438    C 1614 0.962
  1616  O   1.826    C 1615 1.506    O 1617 0.213
  1617  O   1.722    C 1615 1.438    O 1616 0.213
  1618  H   0.971    N 1610 0.956
  1619  H   0.999    C 1611 0.957
  1620  H   0.999    C 1614 0.963
  1621  H   0.998    C 1614 0.954
  1622  N   3.470    C 1612 1.314    C 1623 0.993    H 1626 0.901    O 1613 0.191
  1623  C   3.968    N 1622 0.993    C 1624 0.974    H 1628 0.947    H 1627 0.939    O 1625 0.051
  1624  C   3.952    O 1625 1.607    N 1629 1.298    C 1623 0.974
  1625  O   1.969    C 1624 1.607    N 1629 0.190    C 1623 0.051
  1626  H   0.953    N 1622 0.901
  1627  H   0.987    C 1623 0.939
  1628  H   0.992    C 1623 0.947
  1629  N   3.462    C 1624 1.298    C 1630 0.981    H 1636 0.893    O 1625 0.190
  1630  C   3.964    N 1629 0.981    H 1637 0.955    C 1633 0.953    C 1631 0.932    O 1632 0.055
  1631  C   3.948    O 1632 1.663    N 1643 1.269    C 1630 0.932
  1632  O   1.992    C 1631 1.663    N 1643 0.196    C 1630 0.055
  1633  C   3.961    O 1634 1.006    C 1635 0.998    C 1630 0.953    H 1638 0.952
  1634  O   1.961    C 1633 1.006    H 1639 0.853
  1635  C   3.990    C 1633 0.998    H 1641 0.982    H 1640 0.982    H 1642 0.973
  1636  H   0.942    N 1629 0.893
  1637  H   0.995    C 1630 0.955
  1638  H   0.991    C 1633 0.952
  1639  H   0.894    O 1634 0.853
  1640  H   0.999    C 1635 0.982
  1641  H   0.998    C 1635 0.982
  1642  H   0.992    C 1635 0.973
  1643  N   3.461    C 1631 1.269    C 1644 0.988    H 1649 0.917    O 1632 0.196
  1644  C   3.969    C 1647 1.001    N 1643 0.988    H 1650 0.953    C 1645 0.906    O 1646 0.050
  1645  C   3.957    O 1646 1.575    N 1654 1.381    C 1644 0.906
  1646  O   1.940    C 1645 1.575    N 1654 0.204    C 1644 0.050
  1647  C   3.970    C 1644 1.001    H 1651 0.969    H 1652 0.967    S 1648 0.963
  1648  S   1.975    C 1647 0.963    H 1653 0.927
  1649  H   0.956    N 1643 0.917
  1650  H   0.994    C 1644 0.953
  1651  H   0.998    C 1647 0.969
  1652  H   0.996    C 1647 0.967
  1653  H   0.965    S 1648 0.927
  1654  N   3.533    C 1645 1.381    C 1655 0.962    H 1666 0.917    O 1646 0.204
  1655  C   3.946    N 1654 0.962    H 1667 0.956    C 1658 0.946    C 1656 0.945
  1656  C   3.954    O 1657 1.607    N 1675 1.325    C 1655 0.945
  1657  O   1.929    C 1656 1.607    N 1675 0.201
  1658  C   3.980    C 1659 1.016    H 1669 0.967    H 1668 0.962    C 1655 0.946
  1659  C   3.986    C 1661 1.410    C 1660 1.396    C 1658 1.016    C 1664 0.094
  1660  C   3.991    C 1662 1.463    C 1659 1.396    H 1670 0.972    C 1663 0.104
  1661  C   3.991    C 1663 1.454    C 1659 1.410    H 1671 0.965    C 1662 0.105
  1662  C   3.990    C 1660 1.463    C 1664 1.359    H 1672 0.971    C 1661 0.105
  1663  C   3.987    C 1661 1.454    C 1664 1.368    H 1673 0.964    C 1660 0.104    O 1665 0.062
  1664  C   3.942    C 1663 1.368    C 1662 1.359    O 1665 1.087    C 1659 0.094
  1665  O   2.102    C 1664 1.087    H 1674 0.852    C 1663 0.062
  1666  H   0.947    N 1654 0.917
  1667  H   0.992    C 1655 0.956
  1668  H   0.993    C 1658 0.962
  1669  H   0.994    C 1658 0.967
  1670  H   0.998    C 1660 0.972
  1671  H   0.997    C 1661 0.965
  1672  H   0.996    C 1662 0.971
  1673  H   0.997    C 1663 0.964
  1674  H   0.873    O 1665 0.852
  1675  N   3.492    C 1656 1.325    C 1676 0.972    H 1687 0.905    O 1657 0.201
  1676  C   3.962    N 1675 0.972    C 1677 0.957    H 1688 0.957    C 1679 0.952    O 1678 0.059
  1677  C   3.905    O 1678 1.936    C 1676 0.957    H 1789 0.950
  1678  O   2.073    C 1677 1.936    C 1676 0.059
  1679  C   3.982    C 1680 1.005    H 1689 0.968    H 1690 0.967    C 1676 0.952
  1680  C   3.987    C 1681 1.449    C 1682 1.368    C 1679 1.005    C 1685 0.097
  1681  C   3.992    C 1680 1.449    C 1683 1.410    H 1691 0.970    C 1684 0.107
  1682  C   3.993    C 1684 1.500    C 1680 1.368    H 1692 0.970    C 1683 0.103
  1683  C   3.989    C 1685 1.419    C 1681 1.410    H 1693 0.968    C 1682 0.103    O 1686 0.052
  1684  C   3.988    C 1682 1.500    C 1685 1.329    H 1694 0.968    C 1681 0.107    O 1686 0.052
  1685  C   3.941    C 1683 1.419    C 1684 1.329    O 1686 1.060    C 1680 0.097
  1686  O   2.072    C 1685 1.060    H 1695 0.858    C 1684 0.052    C 1683 0.052
  1687  H   0.948    N 1675 0.905
  1688  H   0.995    C 1676 0.957
  1689  H   0.997    C 1679 0.968
  1690  H   0.994    C 1679 0.967
  1691  H   0.997    C 1681 0.970
  1692  H   0.999    C 1682 0.970
  1693  H   0.994    C 1683 0.968
  1694  H   0.997    C 1684 0.968
  1695  H   0.874    O 1686 0.858
  1696  N   2.996    C 1697 1.017    H 1708 0.959    H 1790 0.950
  1697  C   3.984    N 1696 1.017    H 1709 0.963    C 1698 0.953    C 1700 0.945
  1698  C   3.940    O 1699 1.608    N 1717 1.312    C 1697 0.953
  1699  O   1.918    C 1698 1.608    N 1717 0.193
  1700  C   3.995    C 1701 1.021    H 1711 0.973    H 1710 0.965    C 1697 0.945
  1701  C   3.988    C 1703 1.409    C 1702 1.394    C 1700 1.021    C 1706 0.094
  1702  C   3.993    C 1704 1.461    C 1701 1.394    H 1712 0.973    C 1705 0.105
  1703  C   3.990    C 1705 1.452    C 1701 1.409    H 1713 0.967    C 1704 0.106
  1704  C   3.991    C 1702 1.461    C 1706 1.363    H 1714 0.971    C 1703 0.106
  1705  C   3.986    C 1703 1.452    C 1706 1.369    H 1715 0.965    C 1702 0.105    O 1707 0.062
  1706  C   3.944    C 1705 1.369    C 1704 1.363    O 1707 1.083    C 1701 0.094
  1707  O   2.110    C 1706 1.083    H 1716 0.857    C 1705 0.062
  1708  H   0.974    N 1696 0.959
  1709  H   0.996    C 1697 0.963
  1710  H   0.996    C 1700 0.965
  1711  H   0.998    C 1700 0.973
  1712  H   1.000    C 1702 0.973
  1713  H   0.997    C 1703 0.967
  1714  H   0.998    C 1704 0.971
  1715  H   0.997    C 1705 0.965
  1716  H   0.890    O 1707 0.857
  1717  N   3.472    C 1698 1.312    C 1718 0.981    H 1729 0.901    O 1699 0.193
  1718  C   3.968    N 1717 0.981    C 1721 0.960    H 1730 0.954    C 1719 0.926    O 1720 0.055
  1719  C   3.947    O 1720 1.663    N 1738 1.284    C 1718 0.926
  1720  O   1.990    C 1719 1.663    N 1738 0.198    C 1718 0.055
  1721  C   3.982    C 1722 1.010    H 1731 0.966    H 1732 0.960    C 1718 0.960
  1722  C   3.987    C 1723 1.448    C 1724 1.368    C 1721 1.010    C 1727 0.098
  1723  C   3.989    C 1722 1.448    C 1725 1.408    H 1733 0.963    C 1726 0.107
  1724  C   3.987    C 1726 1.495    C 1722 1.368    H 1734 0.964    C 1725 0.104
  1725  C   3.987    C 1727 1.420    C 1723 1.408    H 1735 0.967    C 1724 0.104
  1726  C   3.989    C 1724 1.495    C 1727 1.336    H 1736 0.963    C 1723 0.107
  1727  C   3.921    C 1725 1.420    C 1726 1.336    O 1728 1.026    C 1722 0.098
  1728  O   2.073    C 1727 1.026    H 1737 0.863
  1729  H   0.943    N 1717 0.901
  1730  H   0.996    C 1718 0.954
  1731  H   0.993    C 1721 0.966
  1732  H   0.991    C 1721 0.960
  1733  H   0.996    C 1723 0.963
  1734  H   0.996    C 1724 0.964
  1735  H   0.996    C 1725 0.967
  1736  H   0.999    C 1726 0.963
  1737  H   0.907    O 1728 0.863
  1738  N   3.456    C 1719 1.284    C 1739 0.981    H 1747 0.904    O 1720 0.198
  1739  C   3.969    N 1738 0.981    C 1742 0.970    C 1740 0.950    H 1748 0.934
  1740  C   3.912    O 1741 1.649    O 1746 1.251    C 1739 0.950
  1741  O   1.950    C 1740 1.649    O 1746 0.181
  1742  C   3.984    C 1743 0.976    H 1749 0.971    H 1750 0.971    C 1739 0.970
  1743  C   3.993    C 1744 1.017    C 1745 1.011    C 1742 0.976    H 1751 0.966
  1744  C   3.995    C 1743 1.017    H 1753 0.984    H 1752 0.983    H 1754 0.982
  1745  C   3.994    C 1743 1.011    H 1756 0.986    H 1757 0.982    H 1755 0.974
  1746  O   2.258    C 1740 1.251    H 1758 0.762    O 1741 0.181
  1747  H   0.952    N 1738 0.904
  1748  H   0.991    C 1739 0.934
  1749  H   0.998    C 1742 0.971
  1750  H   0.998    C 1742 0.971
  1751  H   0.998    C 1743 0.966
  1752  H   0.999    C 1744 0.983
  1753  H   0.999    C 1744 0.984
  1754  H   0.997    C 1744 0.982
  1755  H   0.997    C 1745 0.974
  1756  H   0.999    C 1745 0.986
  1757  H   0.997    C 1745 0.982
  1758  H   0.855    O 1746 0.762    O  337 0.062
  1759  N   2.978    C 1760 1.012    H 1768 0.953    H 1791 0.949
  1760  C   3.984    N 1759 1.012    C 1763 0.970    C 1761 0.956    H 1769 0.940
  1761  C   3.911    O 1762 1.641    O 1767 1.258    C 1760 0.956
  1762  O   1.940    C 1761 1.641    O 1767 0.181
  1763  C   3.990    C 1764 0.979    H 1770 0.972    H 1771 0.972    C 1760 0.970
  1764  C   3.995    C 1765 1.018    C 1766 1.011    C 1763 0.979    H 1772 0.966
  1765  C   3.993    C 1764 1.018    H 1773 0.984    H 1774 0.984    H 1775 0.980
  1766  C   3.995    C 1764 1.011    H 1777 0.985    H 1778 0.981    H 1776 0.975
  1767  O   2.261    C 1761 1.258    H 1779 0.759    O 1762 0.181
  1768  H   0.970    N 1759 0.953
  1769  H   0.996    C 1760 0.940
  1770  H   0.998    C 1763 0.972
  1771  H   0.998    C 1763 0.972
  1772  H   0.999    C 1764 0.966
  1773  H   0.998    C 1765 0.984
  1774  H   0.998    C 1765 0.984
  1775  H   0.997    C 1765 0.980
  1776  H   0.998    C 1766 0.975
  1777  H   0.998    C 1766 0.985
  1778  H   0.998    C 1766 0.981
  1779  H   0.848    O 1767 0.759    O 1556 0.060
  1780  H   0.992    C  232 0.953
  1781  H   0.972    N  244 0.955
  1782  H   0.964    N  531 0.952
  1783  H   0.995    C  533 0.954
  1784  H   0.968    N 1567 0.954
  1785  H   0.991    C 1579 0.950
  1786  H   0.962    N 1596 0.946
  1787  H   0.996    C 1598 0.954
  1788  H   0.970    N 1610 0.957
  1789  H   0.993    C 1677 0.950
  1790  H   0.963    N 1696 0.950
  1791  H   0.967    N 1759 0.949
  1792  H   0.991    C  798 0.949
  1793  H   0.986    C  818 0.947
  1794  H   0.970    N  825 0.953
  1795  H   0.995    C  827 0.956
  1796  H   0.992    C  945 0.955
  1797  H   0.966    N  957 0.952
  1798  H   0.994    C  959 0.957
  1799  H   0.964    N  968 0.951
  1800  H   0.993    C 1125 0.948
  1801  H   0.969    N 1142 0.951
  1802  H   0.995    C 1144 0.956
  1803  H   0.964    N 1161 0.951
  1804  H   0.992    C 1228 0.951
  1805  H   0.971    N 1240 0.960
  1806  H   0.992    C 1258 0.950
  1807  H   0.971    N 1273 0.959
  1808  H   0.992    C 1310 0.953
  1809  H   0.960    N 1322 0.937
  1810  H   0.994    C 1323 0.954
  1811  H   0.968    N 1343 0.954
  1812  H   0.995    C 1386 0.954
  1813  H   0.965    N 1398 0.954
  1814  H   0.994    C 1458 0.956
  1815  H   0.965    N 1475 0.937
  1816  H   0.994    C 1484 0.951
  1817  H   0.968    N 1501 0.953
  1818  H   0.995    C 1503 0.956
  1819  H   0.967    N 1520 0.947
  1820  H   0.993    C 1541 0.948
  1821  H   0.965    N 1553 0.948
  1822  H   0.992    C 1555 0.952
  1823  H   0.970    N  546 0.956
  1824  H   0.992    C  548 0.954
 
molecular dipole:
                 x           y           z       tot (Debye)
 q only:      -96.713     -76.095     -85.506
   full:      -94.756     -70.267     -86.673     372.080
molecular quadrupole (traceless):
                xx          xy          yy          xz          yz          zz
 q only:    -2097.643   -3362.889    3214.630   -5585.060   -3244.680   -1116.987
  q+dip:    -2091.790   -3003.297    3304.639   -5316.475   -2945.335   -1212.850
   full:    -2085.363   -3013.691    3284.965   -5316.229   -2941.940   -1199.602
speedup  7.66
cpu  time for grad   33 m 39.8 s
wall time for grad    4 m 23.8 s

SCC energy    :   -2918.5541115
rep           :      37.0771011
ES            :       9.2867621
AES           :      -0.4717275
AXC           :       0.6494384
disp          :      -2.7305622
XB            :       0.0000000
fix           :       0.0000000
Gborn         :       0.0000000
Gsasa         :       0.0000000
Ghb           :       0.0000000
Gshift        :       0.0000000
Gsolv         :      -1.8540712    -1163.45
Etot ala COSMO:   -2918.5541115
grad norm     :       1.8820420
total E       :   -2881.0864198
atomizationE  :     498.1885285   312618.02
(atE without considering molecular charge,
 total energy contains solvation terms)
H-L gap (eV)  :          0.2328

------------------------------------------------------------------------
 * finished run on 2019/02/22 at 14:25:14.895     
------------------------------------------------------------------------
 total:
 * wall-time:     0 d,  0 h,  4 min, 33.755 sec
 *  cpu-time:     0 d,  0 h, 33 min, 57.955 sec
 * ratio c/w:     7.444 speedup
 SCF:
 * wall-time:     0 d,  0 h,  4 min, 28.295 sec
 *  cpu-time:     0 d,  0 h, 33 min, 50.613 sec
 * ratio c/w:     7.569 speedup

