      -----------------------------------------------------------      
     |                   =====================                   |     
     |                           x T B                           |     
     |                   =====================                   |     
     |                         S. Grimme                         |     
     |          Mulliken Center for Theoretical Chemistry        |     
     |                    University of Bonn                     |     
     |                 Version 6.0.1 (SAW181210)                 |     
      -----------------------------------------------------------      

   This program is distributed in the hope that it will be useful,
   but WITHOUT ANY WARRANTY; without even the implied warranty of
   MERCHANTABILITY or FITNESS FOR A PARTICULAR PURPOSE.
   
   FOR NON-COMMERCIAL, ACADEMIA USE ONLY.
   
   Cite this work as:
   S. Grimme, C. Bannwarth, P. Shushkov, J. Comput. Theory Chem., 2017,
   13, 1989-2009.
   C. Bannwarth, S. Ehlert and S. Grimme., ChemRxiv, 2018, preprint.
   http://doi.org/10.26434/chemrxiv.7246238.v1
   
   for sTDA-xTB:
   S. Grimme and C. Bannwarth, J. Chem. Phys., 2016, 145, 054103.
   
   in the mass-spec context:
   V. Asgeirsson, C. Bauer and S. Grimme, Chem. Sci., 2017, 8, 4879.
   
   if GBSA is used:
   P. Shushkov, F. März and S. Grimme, unpublished.
   
   for ANC optimizer:
   S. Grimme, unpublished.
   Rational Function algorithm used in ANCopt:
   F. Eckert, P. Pulay, H.-J. Werner, J. Comput. Chem., 1997, 18, 1473.
   
   with help from (in alphabetical order)
   C. Bannwarth, F. Bohle, G. Brandenburg, E. Caldeweyher, M. Checinski,
   S. Dohm, S. Ehlert, S. Ehrlich, F. März, H. Neugebauer, J. Pisarek,
   P. Pracht, P. Shushkov, and S. Spicher.
   
 * started run on 2019/02/16 at 08:11:10.561     
========================================================================
 # omp threads = 12
========================================================================
number of atoms            : 61
number of electrons        : 152
charge                     : 2
spin                       : .0
first test random number   : .1025

########################################################################
# WARNING! Please study the warnings concerning your input carefully
#  - Process number higher than OMP_NUM_THREADS, I hope you know what you are doing.
########################################################################

           ------------------------------------------------- 
          |                 G F N 2 - x T B                 |
          | Geometry, Frequencies, Noncovalent interactions |
          |            JCTC 2018 parametrisation            |
           ------------------------------------------------- 
 
      method parameters     
 k(s)        :  1.8500
 k(p)        :  2.2300
 k(d)        :  2.2300
 k(f)        :  2.0000
 kEN (H0ij)  : -2.0000
 D4 a1       :  0.5200
 D4 a2       :  5.0000
 D4 s6       :  1.0000
 D4 s8       :  2.7000
 D4 s9       :  5.0000
 alphaj      :  2.0000

 Solvent             : h2o
 Using internal parameter file: .param_gbsa2_h2o
 Gsolv ref. state (COSMO-RS): gsolv [1 M gas/solution]
 temperature (mdtemp)       :    298.150000000000     
 dielectric constant        :    80.2000000000000     
 rho                        :    1.00000000000000     
 mass                       :    18.0000000000000     
 surface tension            :    15.5689454083859     
 probe radius               :   0.975313790000000     
 vdW radii scaling          :    1.00000000000000     
 Gshift (Eh)                :   1.857443126794793E-003
 c1                         :    1.55243817000000     
 soset                      :   0.130326360000000     
 HB correction              :  T

            Z     q(EN)     CN     RAES       Cart. coordinates
     1  N   5.0   -0.15    3.17    1.95    19.05511    49.75248    21.81472
     2  C   4.0    0.05    4.21    4.02    18.77885    47.01005    22.22027
     3  C   4.0    0.12    3.20    3.04    16.10572    46.03396    21.67806
     4  O   6.0   -0.18    1.12    1.80    15.90829    44.05662    20.42910
     5  H   1.0    0.12    1.04    1.43    19.60909    50.81561    23.31765
     6  H   1.0    0.09    1.06    1.44    20.00768    46.02163    20.87994
     7  C   4.0   -0.04    4.28    4.16    19.63134    46.39902    24.90861
     8  C   4.0   -0.02    4.20    3.99    19.15133    43.67923    25.68132
     9  C   4.0    0.00    4.21    4.02    20.45511    43.08948    28.19541
    10  N   5.0   -0.13    3.39    2.02    23.12620    42.55863    27.90196
    11  C   4.0    0.11    3.34    3.06    25.05209    44.16773    28.12025
    12  N   5.0   -0.16    3.26    1.97    24.79613    46.49372    28.98831
    13  N   5.0   -0.14    3.25    1.97    27.39154    43.35712    27.58046
    14  H   1.0    0.06    1.03    1.43    21.64777    46.80507    25.01982
    15  H   1.0    0.06    1.03    1.43    18.59978    47.62406    26.21192
    16  H   1.0    0.07    1.03    1.43    17.12398    43.35649    25.88628
    17  H   1.0    0.08    1.03    1.43    19.81082    42.38325    24.21864
    18  H   1.0    0.06    1.05    1.44    20.17802    44.63811    29.49844
    19  H   1.0    0.06    1.03    1.43    19.57365    41.40514    28.96453
    20  H   1.0    0.11    1.07    1.44    23.50249    40.84513    27.15127
    21  H   1.0    0.12    1.07    1.44    23.15975    47.12929    29.77586
    22  H   1.0    0.12    1.04    1.43    26.33395    47.64122    28.84830
    23  H   1.0    0.13    1.03    1.43    27.66543    41.74192    26.61808
    24  H   1.0    0.13    1.04    1.43    28.77932    44.67030    27.52420
    25  O   6.0   -0.30    2.00    1.83    20.47020    48.28232    31.47675
    26  H   1.0    0.16    0.97    1.43    20.25365    50.08111    31.41433
    27  H   1.0    0.15    0.99    1.43    18.77984    47.56630    31.51858
    28  O   6.0   -0.29    1.95    1.82    15.63205    45.59944    31.64061
    29  H   1.0    0.15    0.97    1.43    15.15077    44.54873    30.22841
    30  H   1.0    0.17    0.97    1.43    14.10634    46.48441    32.06400
    31  O   6.0   -0.24    1.94    1.82    21.72173    53.09759    25.77008
    32  H   1.0    0.15    0.97    1.43    23.14849    52.05094    26.18887
    33  H   1.0    0.17    0.97    1.43    21.16504    53.84022    27.32993
    34  N   5.0   -0.14    3.17    1.95    19.05511    36.23006    40.92418
    35  C   4.0    0.05    4.21    4.02    18.77885    38.97248    40.51863
    36  C   4.0    0.13    3.20    3.04    16.10572    39.94857    41.06085
    37  O   6.0   -0.18    1.12    1.80    15.90829    41.92591    42.30980
    38  H   1.0    0.12    1.02    1.43    19.60909    35.16692    39.42125
    39  H   1.0    0.09    1.06    1.44    20.00768    39.96090    41.85897
    40  C   4.0   -0.03    4.28    4.16    19.63134    39.58351    37.83029
    41  C   4.0   -0.02    4.20    3.99    19.15133    42.30330    37.05758
    42  C   4.0    0.01    4.21    4.02    20.45511    42.89305    34.54349
    43  N   5.0   -0.13    3.39    2.02    23.12620    43.42390    34.83694
    44  C   4.0    0.11    3.34    3.06    25.05209    41.81480    34.61865
    45  N   5.0   -0.16    3.25    1.97    24.79613    39.48881    33.75060
    46  N   5.0   -0.14    3.25    1.97    27.39154    42.62541    35.15844
    47  H   1.0    0.07    1.03    1.43    21.64777    39.17746    37.71908
    48  H   1.0    0.07    1.03    1.43    18.59978    38.35847    36.52698
    49  H   1.0    0.08    1.03    1.43    17.12398    42.62604    36.85262
    50  H   1.0    0.08    1.03    1.43    19.81082    43.59928    38.52027
    51  H   1.0    0.05    1.03    1.43    20.17802    41.34442    33.24046
    52  H   1.0    0.07    1.04    1.43    19.57365    44.57739    33.77438
    53  H   1.0    0.11    1.07    1.44    23.50249    45.13740    35.58764
    54  H   1.0    0.10    1.02    1.43    23.15975    38.85324    32.96305
    55  H   1.0    0.12    1.04    1.43    26.33395    38.34131    33.89060
    56  H   1.0    0.13    1.03    1.43    27.66543    44.24061    36.12082
    57  H   1.0    0.13    1.04    1.43    28.77932    41.31223    35.21470
    58  H   1.0    0.14    1.07    1.44    20.22099    50.03343    20.60875
    59  H   1.0    0.10    1.04    1.43    14.60434    46.98284    22.32347
    60  H   1.0    0.14    1.07    1.44    20.22099    35.94910    42.13015
    61  H   1.0    0.10    1.04    1.43    14.60434    38.99969    40.41544

  Z AO/shell   Hii/eV     exponent
  1     Wed Apr 25 08:07:45 CEST 2018   EN: 2.200 GM2: 0.406  GM3: 0.0800  RAES: 1.40
     1s    -10.707211    1.230000
  6     Wed Apr 25 08:07:45 CEST 2018   EN: 2.550 GM2: 0.538  GM3: 0.1500  RAES: 3.00
     2s    -13.970922    2.096432
     2p    -10.063292    1.800000
  7     Wed Apr 25 08:07:45 CEST 2018   EN: 3.040 GM2: 0.461  GM3:-0.0640  RAES: 1.90
     2s    -16.686243    2.339881
     2p    -12.523956    2.014332
  8     Wed Apr 25 08:07:45 CEST 2018   EN: 3.440 GM2: 0.452  GM3:-0.0517  RAES: 1.80
     2s    -20.229985    2.439742
     2p    -15.503117    2.137023
 no old-style atom pair restraining (fixing) potential

molecular fragmentation (1/2 indicates fragments):
1111111111111111111111112222222222222222222222222222222221122
# atoms in fragment 1/2:    26    35
 fragment masses (1/2) :      159.21      213.26
CMA distance (Bohr)    :  10.546
constraining FC (au)   :  0.0500
           ------------------------------------------------- 
          |        Self-Consistent Charge Iterations        |
           ------------------------------------------------- 

 Ncao       : 136
 Nao        : 136
 Nshell     : 86
 Nel        : 152
 T(el)      :   500.0
 intcut     :    35.0
 scfconv/Eh :  0.100E-06
   qconv/e  :  0.100E-04
 intneglect :  0.100E-08
 broydamp   :      0.400
 iter      E             dE          RMSdq      gap      omega  full diag
   1    -87.9140428 -0.879140E+02  0.489E+00    3.13       0.0  T
   2    -88.1020118 -0.187969E+00  0.230E+00    1.98       1.0  T
   3    -88.1164091 -0.143974E-01  0.115E+00    2.16       1.0  T
   4    -88.1344295 -0.180203E-01  0.304E-01    1.83       1.0  T
   5    -88.1349858 -0.556343E-03  0.116E-01    1.96       1.0  T
   6    -88.1352753 -0.289478E-03  0.378E-02    1.91       1.0  T
   7    -88.1352862 -0.109397E-04  0.178E-02    1.89       1.0  T
   8    -88.1352885 -0.227017E-05  0.623E-03    1.89       2.1  T
   9    -88.1352888 -0.290994E-06  0.223E-03    1.89       5.7  T
  10    -88.1352888 -0.656570E-07  0.765E-04    1.89      16.7  T
  11    -88.1352889 -0.694075E-08  0.235E-04    1.89      54.4  T
  12    -88.1352889 -0.802515E-09  0.940E-05    1.89     136.2  T
  13    -88.1352889 -0.175305E-09  0.358E-05    1.89     357.9  T
speedup 11.91
cpu  time for SCC    0.93 s
wall time for SCC    0.08 s

   *** convergence criteria satisfied after 13 iterations ***

          eigenvalues
 #    :          64         65         66         67         68         69         70         71
 occ. :        2.000      2.000      2.000      2.000      2.000      2.000      2.000      2.000
 eps  :       -12.250    -12.122    -12.055    -11.993    -11.906    -11.892    -11.785    -11.419
 #    :          72         73         74         75         76         77         78         79
 occ. :        2.000      2.000      2.000      2.000      2.000      0.000      0.000      0.000
 eps  :       -11.352    -11.306    -11.250     -9.952     -9.709     -7.815     -7.776     -6.217
 #    :          80         81         82         83         84         85         86         87
 occ. :        0.000      0.000      0.000      0.000      0.000      0.000      0.000      0.000
 eps  :        -6.103     -1.504     -1.331     -0.223      0.103      0.566      0.692      1.189


   #   Z            q   n(s)   n(p)   n(d)      C6AA      α(0)
   1   7 N     -0.413  1.331  4.081  0.000    30.732     8.233
   2   6 C      0.037  1.058  2.905  0.000    19.974     6.367
   3   6 C      0.198  1.095  2.707  0.000    23.781     7.986
   4   8 O     -0.398  1.775  4.623  0.000    21.641     6.237
   5   1 H      0.190  0.810  0.000  0.000     1.157     1.685
   6   1 H      0.047  0.953  0.000  0.000     2.361     2.403
   7   6 C     -0.087  1.062  3.025  0.000    22.152     6.700
   8   6 C     -0.080  1.051  3.029  0.000    22.028     6.682
   9   6 C     -0.051  1.057  2.994  0.000    21.571     6.627
  10   7 N     -0.138  1.206  3.932  0.000    23.985     7.274
  11   6 C      0.219  1.023  2.758  0.000    23.367     7.914
  12   7 N     -0.250  1.238  4.012  0.000    26.496     7.645
  13   7 N     -0.267  1.249  4.018  0.000    26.909     7.704
  14   1 H      0.079  0.921  0.000  0.000     1.990     2.206
  15   1 H      0.078  0.922  0.000  0.000     2.000     2.212
  16   1 H      0.046  0.954  0.000  0.000     2.367     2.406
  17   1 H      0.056  0.944  0.000  0.000     2.245     2.343
  18   1 H      0.123  0.877  0.000  0.000     1.587     1.970
  19   1 H      0.092  0.908  0.000  0.000     1.859     2.132
  20   1 H      0.228  0.772  0.000  0.000     0.974     1.546
  21   1 H      0.271  0.729  0.000  0.000     0.808     1.408
  22   1 H      0.239  0.761  0.000  0.000     0.927     1.509
  23   1 H      0.239  0.761  0.000  0.000     0.925     1.507
  24   1 H      0.244  0.756  0.000  0.000     0.908     1.493
  25   8 O     -0.616  1.736  4.881  0.000    25.580     6.826
  26   1 H      0.317  0.683  0.000  0.000     0.672     1.288
  27   1 H      0.325  0.675  0.000  0.000     0.650     1.267
  28   8 O     -0.626  1.747  4.879  0.000    25.824     6.859
  29   1 H      0.320  0.680  0.000  0.000     0.664     1.280
  30   1 H      0.324  0.676  0.000  0.000     0.652     1.268
  31   8 O     -0.648  1.778  4.870  0.000    26.364     6.930
  32   1 H      0.331  0.669  0.000  0.000     0.634     1.251
  33   1 H      0.328  0.672  0.000  0.000     0.644     1.260
  34   7 N     -0.407  1.331  4.076  0.000    30.565     8.211
  35   6 C      0.036  1.059  2.905  0.000    19.992     6.369
  36   6 C      0.199  1.094  2.707  0.000    23.759     7.982
  37   8 O     -0.392  1.774  4.618  0.000    21.519     6.219
  38   1 H      0.176  0.824  0.000  0.000     1.234     1.740
  39   1 H      0.053  0.947  0.000  0.000     2.284     2.363
  40   6 C     -0.084  1.061  3.024  0.000    22.103     6.692
  41   6 C     -0.082  1.051  3.031  0.000    22.063     6.687
  42   6 C     -0.048  1.057  2.991  0.000    21.518     6.619
  43   7 N     -0.130  1.206  3.923  0.000    23.814     7.248
  44   6 C      0.220  1.022  2.759  0.000    23.360     7.913
  45   7 N     -0.238  1.227  4.012  0.000    26.229     7.606
  46   7 N     -0.262  1.248  4.014  0.000    26.801     7.689
  47   1 H      0.076  0.924  0.000  0.000     2.023     2.224
  48   1 H      0.067  0.933  0.000  0.000     2.114     2.274
  49   1 H      0.055  0.945  0.000  0.000     2.256     2.349
  50   1 H      0.061  0.939  0.000  0.000     2.193     2.316
  51   1 H      0.095  0.905  0.000  0.000     1.835     2.118
  52   1 H      0.123  0.877  0.000  0.000     1.589     1.971
  53   1 H      0.237  0.763  0.000  0.000     0.937     1.516
  54   1 H      0.248  0.752  0.000  0.000     0.893     1.480
  55   1 H      0.252  0.748  0.000  0.000     0.877     1.467
  56   1 H      0.245  0.755  0.000  0.000     0.902     1.488
  57   1 H      0.246  0.754  0.000  0.000     0.899     1.485
  58   1 H      0.171  0.829  0.000  0.000     1.264     1.761
  59   1 H      0.074  0.926  0.000  0.000     2.039     2.233
  60   1 H      0.178  0.822  0.000  0.000     1.228     1.736
  61   1 H      0.075  0.925  0.000  0.000     2.036     2.231

 Mol. C6AA /au·bohr⁶  :      26811.400924
 Mol. C8AA /au·bohr⁸  :     565309.621740
 Mol. α(0) /au        :        244.404054

 
 Wiberg/Mayer (AO) data. WBOs > 0.1 written file <wbo>
 largest (>0.05) Wiberg bond orders for each atom
           total WBO             WBO to atom ...
     1  N   2.982    C    2 1.004    H   58 0.960    H    5 0.932
     2  C   3.982    N    1 1.004    C    3 0.979    H    6 0.962    C    7 0.962    O    4 0.054
     3  C   3.881    O    4 1.881    C    2 0.979    H   59 0.955
     4  O   2.016    C    3 1.881    C    2 0.054
     5  H   0.964    N    1 0.932
     6  H   0.998    C    2 0.962
     7  C   3.986    C    8 1.009    H   15 0.969    H   14 0.967    C    2 0.962
     8  C   3.993    C    7 1.009    C    9 0.993    H   17 0.972    H   16 0.970
     9  C   3.949    C    8 0.993    N   10 0.988    H   19 0.963    H   18 0.943
    10  N   3.466    C   11 1.305    C    9 0.988    H   20 0.918    N   12 0.107    N   13 0.093
    11  C   3.978    N   12 1.351    N   10 1.305    N   13 1.288
    12  N   3.411    C   11 1.351    H   22 0.921    H   21 0.856    N   10 0.107    N   13 0.103
    13  N   3.365    C   11 1.288    H   23 0.922    H   24 0.919    N   12 0.103    N   10 0.093
    14  H   0.994    C    7 0.967
    15  H   0.994    C    7 0.969
    16  H   0.997    C    8 0.970
    17  H   0.997    C    8 0.972
    18  H   0.985    C    9 0.943
    19  H   0.991    C    9 0.963
    20  H   0.948    N   10 0.918
    21  H   0.927    N   12 0.856
    22  H   0.943    N   12 0.921
    23  H   0.942    N   13 0.922
    24  H   0.941    N   13 0.919
    25  O   1.859    H   26 0.894    H   27 0.857
    26  H   0.899    O   25 0.894
    27  H   0.894    O   25 0.857
    28  O   1.825    H   29 0.893    H   30 0.892
    29  H   0.898    O   28 0.893
    30  H   0.895    O   28 0.892
    31  O   1.804    H   33 0.891    H   32 0.889
    32  H   0.890    O   31 0.889
    33  H   0.893    O   31 0.891
    34  N   2.985    C   35 1.002    H   60 0.959    H   38 0.951
    35  C   3.980    N   34 1.002    C   36 0.979    C   40 0.963    H   39 0.962    O   37 0.054
    36  C   3.883    O   37 1.886    C   35 0.979    H   61 0.955
    37  O   2.020    C   36 1.886    C   35 0.054
    38  H   0.969    N   34 0.951
    39  H   0.997    C   35 0.962
    40  C   3.987    C   41 1.008    H   48 0.971    H   47 0.967    C   35 0.963
    41  C   3.992    C   40 1.008    C   42 0.993    H   50 0.972    H   49 0.970
    42  C   3.948    C   41 0.993    N   43 0.988    H   51 0.957    H   52 0.947
    43  N   3.481    C   44 1.320    C   42 0.988    H   53 0.914    N   45 0.106    N   46 0.099
    44  C   3.978    N   45 1.329    N   43 1.320    N   46 1.294
    45  N   3.407    C   44 1.329    H   55 0.915    H   54 0.911    N   43 0.106    N   46 0.099
    46  N   3.370    C   44 1.294    H   56 0.920    H   57 0.918    N   45 0.099    N   43 0.099
    47  H   0.994    C   40 0.967
    48  H   0.995    C   40 0.971
    49  H   0.996    C   41 0.970
    50  H   0.996    C   41 0.972
    51  H   0.991    C   42 0.957
    52  H   0.985    C   42 0.947
    53  H   0.944    N   43 0.914
    54  H   0.939    N   45 0.911
    55  H   0.937    N   45 0.915
    56  H   0.940    N   46 0.920
    57  H   0.939    N   46 0.918
    58  H   0.971    N    1 0.960
    59  H   0.994    C    3 0.955
    60  H   0.968    N   34 0.959
    61  H   0.994    C   36 0.955
 
molecular dipole:
                 x           y           z       tot (Debye)
 q only:       49.839      86.624      63.346
   full:       49.972      86.660      63.379     301.009
molecular quadrupole (traceless):
                xx          xy          yy          xz          yz          zz
 q only:    -1624.708    3229.246    2160.748    2364.507    4102.190    -536.040
  q+dip:    -1616.577    3237.348    2158.984    2372.026    4110.416    -542.407
   full:    -1618.586    3237.141    2159.077    2372.013    4108.024    -540.491
speedup 11.90
cpu  time for grad    1.04 s
wall time for grad    0.09 s

SCC energy    :     -88.1394759
rep           :       1.0882433
ES            :       0.5032884
AES           :      -0.0297116
AXC           :       0.0420923
disp          :      -0.0494118
XB            :       0.0000000
fix           :       0.0000000
Gborn         :       0.0000000
Gsasa         :       0.0000000
Ghb           :       0.0000000
Gshift        :       0.0000000
Gsolv         :      -0.3183268     -199.75
Etot ala COSMO:     -88.1394759
grad norm     :       0.3313359
total E       :     -87.0494689
atomizationE  :      14.3351604     8995.45
(atE without considering molecular charge,
 total energy contains solvation terms)
H-L gap (eV)  :          1.8940

------------------------------------------------------------------------
 * finished run on 2019/02/16 at 08:11:10.715     
------------------------------------------------------------------------
 total:
 * wall-time:     0 d,  0 h,  0 min,  0.152 sec
 *  cpu-time:     0 d,  0 h,  0 min,  1.680 sec
 * ratio c/w:    11.043 speedup
 SCF:
 * wall-time:     0 d,  0 h,  0 min,  0.100 sec
 *  cpu-time:     0 d,  0 h,  0 min,  1.193 sec
 * ratio c/w:    11.909 speedup

