      -----------------------------------------------------------      
     |                   =====================                   |     
     |                           x T B                           |     
     |                   =====================                   |     
     |                         S. Grimme                         |     
     |          Mulliken Center for Theoretical Chemistry        |     
     |                    University of Bonn                     |     
     |                 Version 6.0.1 (SAW181210)                 |     
      -----------------------------------------------------------      

   This program is distributed in the hope that it will be useful,
   but WITHOUT ANY WARRANTY; without even the implied warranty of
   MERCHANTABILITY or FITNESS FOR A PARTICULAR PURPOSE.
   
   FOR NON-COMMERCIAL, ACADEMIA USE ONLY.
   
   Cite this work as:
   S. Grimme, C. Bannwarth, P. Shushkov, J. Comput. Theory Chem., 2017,
   13, 1989-2009.
   C. Bannwarth, S. Ehlert and S. Grimme., ChemRxiv, 2018, preprint.
   http://doi.org/10.26434/chemrxiv.7246238.v1
   
   for sTDA-xTB:
   S. Grimme and C. Bannwarth, J. Chem. Phys., 2016, 145, 054103.
   
   in the mass-spec context:
   V. Asgeirsson, C. Bauer and S. Grimme, Chem. Sci., 2017, 8, 4879.
   
   if GBSA is used:
   P. Shushkov, F. März and S. Grimme, unpublished.
   
   for ANC optimizer:
   S. Grimme, unpublished.
   Rational Function algorithm used in ANCopt:
   F. Eckert, P. Pulay, H.-J. Werner, J. Comput. Chem., 1997, 18, 1473.
   
   with help from (in alphabetical order)
   C. Bannwarth, F. Bohle, G. Brandenburg, E. Caldeweyher, M. Checinski,
   S. Dohm, S. Ehlert, S. Ehrlich, F. März, H. Neugebauer, J. Pisarek,
   P. Pracht, P. Shushkov, and S. Spicher.
   
 * started run on 2019/02/16 at 08:10:42.435     
========================================================================
 # omp threads = 12
========================================================================
number of atoms            : 361
number of electrons        : 970
charge                     : -2
spin                       : .0
first test random number   : .7260

########################################################################
# WARNING! Please study the warnings concerning your input carefully
#  - Process number higher than OMP_NUM_THREADS, I hope you know what you are doing.
########################################################################

           ------------------------------------------------- 
          |                 G F N 2 - x T B                 |
          | Geometry, Frequencies, Noncovalent interactions |
          |            JCTC 2018 parametrisation            |
           ------------------------------------------------- 
 
      method parameters     
 k(s)        :  1.8500
 k(p)        :  2.2300
 k(d)        :  2.2300
 k(f)        :  2.0000
 kEN (H0ij)  : -2.0000
 D4 a1       :  0.5200
 D4 a2       :  5.0000
 D4 s6       :  1.0000
 D4 s8       :  2.7000
 D4 s9       :  5.0000
 alphaj      :  2.0000

 Solvent             : h2o
 Using internal parameter file: .param_gbsa2_h2o
 Gsolv ref. state (COSMO-RS): gsolv [1 M gas/solution]
 temperature (mdtemp)       :    298.150000000000     
 dielectric constant        :    80.2000000000000     
 rho                        :    1.00000000000000     
 mass                       :    18.0000000000000     
 surface tension            :    15.5689454083859     
 probe radius               :   0.975313790000000     
 vdW radii scaling          :    1.00000000000000     
 Gshift (Eh)                :   1.857443126794793E-003
 c1                         :    1.55243817000000     
 soset                      :   0.130326360000000     
 HB correction              :  T

            Z     q(EN)     CN     RAES       Cart. coordinates
     1  N   5.0   -0.22    3.19    1.95    14.57373    40.95809    16.21441
     2  C   4.0    0.03    4.26    4.12    13.41511    38.44311    16.69527
     3  C   4.0    0.14    3.37    3.07    10.98252    37.99912    15.04011
     4  O   6.0   -0.31    1.26    1.80    10.55781    35.92201    14.08236
     5  H   1.0    0.07    1.02    1.43    14.81231    42.13174    17.70689
     6  H   1.0    0.05    1.04    1.44    14.75294    36.95513    16.20480
     7  C   4.0   -0.04    4.30    4.19    12.58361    38.36271    19.46577
     8  C   4.0   -0.04    4.18    3.97    14.78496    38.15015    21.31194
     9  C   4.0    0.24    3.20    3.04    15.91016    35.48309    21.10012
    10  O   6.0   -0.32    1.22    1.80    18.07563    35.20736    20.24908
    11  O   6.0   -0.33    1.34    1.80    14.47334    33.72666    21.83657
    12  H   1.0    0.03    1.03    1.43    11.49660    40.08039    19.83932
    13  H   1.0    0.06    1.03    1.43    11.31801    36.75083    19.73386
    14  H   1.0    0.04    1.02    1.43    16.20632    39.58341    20.92730
    15  H   1.0    0.04    1.03    1.43    14.05520    38.39035    23.22593
    16  N   5.0   -0.15    3.44    2.04     9.55538    39.98930    14.60403
    17  C   4.0    0.03    4.33    4.25     7.27057    39.86784    12.95269
    18  C   4.0    0.08    3.27    3.05     8.06928    39.06056    10.32286
    19  O   6.0   -0.32    1.18    1.80     6.99116    37.39087     9.05143
    20  C   4.0   -0.05    4.38    4.35     5.89736    42.36269    13.08243
    21  C   4.0   -0.04    4.12    3.85     3.82980    42.39675    11.14630
    22  S   6.0   -0.07    2.53    3.10     2.60825    45.50043    10.76450
    23  C   4.0   -0.08    3.88    3.43     5.00489    46.97884     8.77059
    24  H   1.0    0.07    1.06    1.44     9.77149    41.58822    15.63928
    25  H   1.0    0.06    1.05    1.44     6.05319    38.35267    13.69478
    26  H   1.0    0.03    1.03    1.43     5.15605    42.62536    14.98714
    27  H   1.0    0.03    1.04    1.44     7.26718    43.86328    12.68942
    28  H   1.0    0.05    1.09    1.44     4.50636    41.75292     9.30527
    29  H   1.0    0.05    1.08    1.44     2.25844    41.18284    11.69572
    30  H   1.0    0.03    1.05    1.44     4.42994    48.93349     8.60954
    31  H   1.0    0.03    1.03    1.43     6.85640    46.82208     9.63967
    32  H   1.0    0.03    1.04    1.43     5.00528    46.06770     6.93271
    33  N   5.0   -0.20    3.21    1.96    13.27482    36.54424     8.45668
    34  C   4.0    0.02    4.30    4.20    14.49205    34.01076     8.40819
    35  C   4.0    0.15    3.40    3.08    12.40793    31.95429     8.34143
    36  O   6.0   -0.32    1.27    1.80    12.59383    30.09712     6.89695
    37  H   1.0    0.08    1.02    1.43    13.56950    37.63423    10.00156
    38  H   1.0    0.04    1.05    1.44    15.55004    33.83457     6.64338
    39  C   4.0   -0.05    4.31    4.21    16.14184    33.74340    10.73486
    40  C   4.0   -0.04    4.24    4.08    17.60008    31.27104    10.60095
    41  C   4.0    0.00    4.25    4.09    16.87618    29.56561    12.74997
    42  N   5.0   -0.14    3.45    2.05    17.51995    30.79038    15.10920
    43  C   4.0    0.11    3.38    3.07    16.00384    30.87816    17.12646
    44  N   5.0   -0.17    3.25    1.97    13.50856    31.18999    16.90957
    45  N   5.0   -0.17    3.34    2.00    17.11286    30.54423    19.37805
    46  H   1.0    0.03    1.03    1.43    17.40960    35.36698    10.80955
    47  H   1.0    0.06    1.04    1.43    14.94117    33.81998    12.40831
    48  H   1.0    0.06    1.04    1.43    17.23078    30.29670     8.82457
    49  H   1.0    0.04    1.03    1.43    19.61934    31.63824    10.72994
    50  H   1.0    0.06    1.04    1.44    14.85835    29.17222    12.69405
    51  H   1.0    0.06    1.02    1.43    17.84331    27.74239    12.59805
    52  H   1.0    0.07    1.08    1.44    19.38960    30.73601    15.50885
    53  H   1.0    0.10    1.04    1.43    12.58557    30.90509    15.27462
    54  H   1.0    0.10    1.04    1.43    12.49144    31.37930    18.50669
    55  H   1.0    0.09    1.05    1.44    18.94810    31.07402    19.47338
    56  H   1.0    0.13    1.16    1.46    16.06413    31.32668    20.85811
    57  N   5.0   -0.13    3.44    2.04    10.33331    32.35433     9.71054
    58  C   4.0    0.04    4.39    4.36     8.30012    30.42585     9.76601
    59  C   4.0    0.16    3.48    3.11     6.95905    30.31244     7.18613
    60  O   6.0   -0.32    1.27    1.80     6.37320    28.25622     6.25650
    61  C   4.0   -0.04    4.24    4.07     6.25715    31.18437    11.75616
    62  C   4.0   -0.03    4.19    3.99     4.58062    28.91226    12.26478
    63  C   4.0    0.24    3.08    3.02     2.36604    29.15475    14.16637
    64  O   6.0   -0.30    1.17    1.80     2.17158    31.13793    15.38418
    65  O   6.0   -0.33    1.28    1.80     0.90907    27.26850    14.31742
    66  H   1.0    0.11    1.09    1.44    10.31962    33.72407    11.05083
    67  H   1.0    0.06    1.05    1.44     9.10131    28.57288    10.18982
    68  H   1.0    0.06    1.02    1.43     7.18119    31.79546    13.49311
    69  H   1.0    0.06    1.04    1.43     5.14346    32.72481    10.99711
    70  H   1.0    0.05    1.03    1.43     3.73374    28.24671    10.49888
    71  H   1.0    0.05    1.03    1.43     5.73248    27.34925    12.98410
    72  N   5.0   -0.15    3.52    2.09     6.42453    32.52178     6.10435
    73  C   4.0    0.03    4.44    4.45     5.27002    32.59561     3.68957
    74  C   4.0    0.15    3.48    3.11     6.95975    31.28407     1.73581
    75  O   6.0   -0.32    1.26    1.80     6.06152    29.87039     0.11482
    76  C   4.0   -0.05    4.35    4.30     4.86021    35.37007     2.85807
    77  C   4.0   -0.02    4.20    4.00     2.72108    36.63658     4.38049
    78  C   4.0   -0.08    4.18    3.96     2.56288    39.35721     3.58762
    79  C   4.0   -0.08    4.15    3.91     0.11585    35.60461     3.80455
    80  H   1.0    0.10    1.09    1.44     6.82542    34.15568     7.01845
    81  H   1.0    0.05    1.05    1.44     3.47897    31.55286     3.71230
    82  H   1.0    0.04    1.03    1.43     6.63021    36.38082     3.14345
    83  H   1.0    0.04    1.03    1.43     4.37585    35.37549     0.85554
    84  H   1.0    0.06    1.06    1.44     3.09418    36.46927     6.39266
    85  H   1.0    0.03    1.00    1.43     1.11346    40.34007     4.66551
    86  H   1.0    0.04    1.00    1.43     4.34249    40.34597     3.91537
    87  H   1.0    0.03    1.00    1.43     2.10820    39.50808     1.58875
    88  H   1.0    0.04    1.01    1.43    -1.26720    36.62870     4.92743
    89  H   1.0    0.03    1.00    1.43    -0.35588    35.82779     1.82057
    90  H   1.0    0.04    1.00    1.43    -0.08076    33.61113     4.28097
    91  N   5.0   -0.14    3.49    2.07     9.40011    31.84216     1.78350
    92  C   4.0    0.03    4.44    4.45    11.10708    30.75534    -0.11416
    93  C   4.0    0.16    3.49    3.11    11.30735    27.93082     0.18699
    94  O   6.0   -0.30    1.27    1.80    11.24680    26.35054    -1.59760
    95  C   4.0   -0.04    4.39    4.37    13.72494    31.85766     0.15139
    96  C   4.0    0.16    3.25    3.04    15.60892    31.10892    -1.84831
    97  O   6.0   -0.30    1.28    1.80    17.61420    30.06141    -1.29887
    98  N   5.0   -0.19    3.25    1.97    14.83772    31.57269    -4.09288
    99  H   1.0    0.08    1.06    1.44    10.11366    33.08325     3.06118
   100  H   1.0    0.05    1.05    1.44    10.26695    31.10058    -1.97983
   101  H   1.0    0.03    1.03    1.43    13.54953    33.92176     0.14511
   102  H   1.0    0.06    1.03    1.43    14.48129    31.32009     1.99872
   103  H   1.0    0.09    1.03    1.43    15.72888    30.84485    -5.63871
   104  H   1.0    0.07    1.05    1.44    13.18127    32.48083    -4.34734
   105  N   5.0   -0.13    3.47    2.06    11.40474    27.05645     2.56604
   106  C   4.0    0.04    4.41    4.40    11.48052    24.32917     2.98739
   107  C   4.0    0.16    3.47    3.10     9.09641    22.99005     2.10260
   108  O   6.0   -0.30    1.27    1.80     9.09548    20.85062     1.20061
   109  C   4.0   -0.03    4.28    4.16    11.75557    23.43208     5.76358
   110  C   4.0   -0.02    4.16    3.93    14.30572    24.06924     6.91371
   111  C   4.0    0.25    3.10    3.02    14.46850    23.44579     9.78470
   112  O   6.0   -0.33    1.28    1.80    12.46917    22.77517    10.89169
   113  O   6.0   -0.30    1.17    1.80    16.61443    23.71195    10.72771
   114  H   1.0    0.11    1.09    1.44    11.60053    28.19905     4.10099
   115  H   1.0    0.06    1.05    1.44    13.04028    23.53788     1.86403
   116  H   1.0    0.06    1.03    1.43    10.26128    24.31554     6.88161
   117  H   1.0    0.06    1.04    1.43    11.49741    21.38837     5.74943
   118  H   1.0    0.05    1.02    1.43    15.81362    23.05546     5.94059
   119  H   1.0    0.06    1.03    1.43    14.68014    26.09179     6.73295
   120  N   5.0   -0.13    3.50    2.08     6.90717    24.20814     2.52274
   121  C   4.0    0.03    4.29    4.18     4.45489    23.19411     1.76678
   122  C   4.0    0.15    3.38    3.07     4.37174    22.89405    -1.14120
   123  O   6.0   -0.30    1.21    1.80     3.49901    20.95859    -2.10492
   124  C   4.0   -0.07    4.07    3.75     2.37794    24.82757     2.95915
   125  H   1.0    0.11    1.09    1.44     6.88042    25.87737     3.47082
   126  H   1.0    0.05    1.05    1.44     4.31757    21.24471     2.46943
   127  H   1.0    0.04    1.00    1.43     0.56752    23.88542     2.76172
   128  H   1.0    0.05    1.00    1.43     2.82122    25.08559     4.94499
   129  H   1.0    0.05    1.00    1.43     2.32790    26.66594     2.04753
   130  N   5.0   -0.14    3.48    2.06     5.34865    24.84549    -2.55174
   131  C   4.0    0.04    4.45    4.47     5.43081    24.72571    -5.26928
   132  C   4.0    0.16    3.45    3.09     7.02728    22.63548    -6.21061
   133  O   6.0   -0.29    1.22    1.80     6.39774    21.28022    -7.99290
   134  C   4.0   -0.05    4.43    4.43     6.10903    27.20988    -6.39936
   135  C   4.0   -0.02    4.18    3.95     4.13299    29.33603    -5.88205
   136  C   4.0   -0.08    4.15    3.91     5.53569    31.66303    -6.74285
   137  C   4.0   -0.08    4.09    3.78     1.73611    28.84903    -7.44557
   138  H   1.0    0.11    1.08    1.44     5.97914    26.40334    -1.63509
   139  H   1.0    0.05    1.07    1.44     3.52252    24.20650    -5.93894
   140  H   1.0    0.05    1.03    1.43     7.95128    27.76496    -5.64792
   141  H   1.0    0.04    1.04    1.43     6.27407    26.94493    -8.43589
   142  H   1.0    0.05    1.05    1.44     3.69121    29.42497    -3.87491
   143  H   1.0    0.03    1.00    1.43     4.37786    33.35132    -6.55070
   144  H   1.0    0.04    1.00    1.43     7.24236    31.91757    -5.63577
   145  H   1.0    0.03    1.01    1.43     6.04882    31.46784    -8.72276
   146  H   1.0    0.03    1.00    1.43     0.47377    30.46857    -7.37142
   147  H   1.0    0.03    1.00    1.43     2.22062    28.51764    -9.41599
   148  H   1.0    0.04    1.00    1.43     0.72370    27.19908    -6.77169
   149  N   5.0   -0.13    3.45    2.05     9.30789    22.29554    -5.03579
   150  C   4.0    0.04    4.39    4.36    11.04353    20.19202    -5.68766
   151  C   4.0    0.16    3.42    3.09     9.93186    17.61625    -5.12945
   152  O   6.0   -0.28    1.25    1.80    10.16360    15.92746    -6.73696
   153  C   4.0   -0.03    4.28    4.16    13.66753    20.56255    -4.53071
   154  C   4.0   -0.03    4.20    4.01    14.96354    22.91875    -5.55301
   155  C   4.0    0.25    3.13    3.03    17.62721    23.14591    -4.55966
   156  O   6.0   -0.29    1.20    1.80    18.24736    21.82332    -2.70381
   157  O   6.0   -0.28    1.16    1.80    19.08726    24.74628    -5.57967
   158  H   1.0    0.11    1.08    1.44     9.80489    23.39477    -3.55431
   159  H   1.0    0.06    1.06    1.44    11.24488    20.23638    -7.75942
   160  H   1.0    0.07    1.03    1.43    13.49827    20.70804    -2.47715
   161  H   1.0    0.06    1.03    1.43    14.80808    18.89035    -4.91924
   162  H   1.0    0.04    1.02    1.43    14.97114    22.90759    -7.61794
   163  H   1.0    0.07    1.03    1.43    13.93991    24.59329    -4.90585
   164  N   5.0   -0.13    3.45    2.05     8.58372    17.32060    -3.08888
   165  C   4.0    0.04    4.29    4.18     7.27482    14.89846    -2.54753
   166  C   4.0    0.09    3.24    3.04     5.27680    14.43113    -4.57408
   167  O   6.0   -0.29    1.10    1.80     4.96180    12.29586    -5.53975
   168  C   4.0   -0.04    4.29    4.18     6.13959    15.04335     0.11566
   169  C   4.0   -0.02    4.13    3.87     4.28794    12.78273     0.85197
   170  C   4.0   -0.08    4.09    3.78     5.93509    10.42818     1.13381
   171  C   4.0   -0.08    4.06    3.73     2.62629    13.44596     3.10763
   172  H   1.0    0.11    1.09    1.44     8.66207    18.59076    -1.65169
   173  H   1.0    0.06    1.05    1.44     8.64843    13.36128    -2.70415
   174  H   1.0    0.06    1.02    1.43     7.68887    15.14033     1.46541
   175  H   1.0    0.06    1.03    1.43     5.07068    16.80798     0.21068
   176  H   1.0    0.05    1.06    1.44     3.04644    12.48982    -0.77729
   177  H   1.0    0.04    1.00    1.43     4.80181     8.77387     1.55258
   178  H   1.0    0.05    1.00    1.43     6.92764    10.07903    -0.62490
   179  H   1.0    0.04    1.00    1.43     7.30752    10.69655     2.63711
   180  H   1.0    0.04    1.00    1.43     1.24673    11.95414     3.38235
   181  H   1.0    0.05    1.00    1.43     3.75134    13.61696     4.81180
   182  H   1.0    0.04    1.00    1.43     1.65105    15.21254     2.73053
   183  O   6.0   -0.29    1.92    1.82    24.89827    29.36648     1.46451
   184  H   1.0    0.11    0.97    1.43    26.10690    30.32862     2.43998
   185  H   1.0    0.13    0.97    1.43    24.29852    30.46928     0.14075
   186  O   6.0   -0.30    1.93    1.82    19.23461    28.79774     3.37095
   187  H   1.0    0.16    1.03    1.43    18.86932    29.36796     1.66175
   188  H   1.0    0.14    0.97    1.43    19.40137    27.00371     3.20216
   189  O   6.0   -0.31    2.02    1.83    -3.85159    27.02996    15.62967
   190  H   1.0    0.17    1.05    1.44    -2.04109    27.21023    15.20903
   191  H   1.0    0.14    0.97    1.43    -4.02637    25.37384    16.35182
   192  O   6.0   -0.31    1.97    1.82    11.71838    27.05598    14.46334
   193  H   1.0    0.14    0.97    1.43    11.01352    26.12082    15.85361
   194  H   1.0    0.15    1.00    1.43    12.06671    25.78381    13.19647
   195  O   6.0   -0.29    1.92    1.82     3.28424    27.59870    20.64268
   196  H   1.0    0.13    0.97    1.43     4.81478    28.51309    20.99848
   197  H   1.0    0.15    0.97    1.43     2.57955    28.36425    19.15220
   198  O   6.0   -0.30    1.94    1.82    11.49233    21.36291    15.87840
   199  H   1.0    0.16    1.01    1.43    11.87996    21.79251    14.12159
   200  H   1.0    0.15    0.98    1.43    10.47793    19.85465    15.76824
   201  O   6.0   -0.29    1.93    1.82    12.55767    17.08690     2.56519
   202  H   1.0    0.13    0.97    1.43    13.90384    18.06900     1.86102
   203  H   1.0    0.14    0.99    1.43    13.10618    16.59492     4.24341
   204  O   6.0   -0.29    1.93    1.82    -2.84872    23.26323    11.52802
   205  H   1.0    0.16    1.01    1.43    -3.75311    22.25793    12.75376
   206  H   1.0    0.14    0.98    1.43    -1.68392    24.30464    12.47099
   207  O   6.0   -0.32    1.98    1.82    -5.98433    31.57319    14.66148
   208  H   1.0    0.15    1.03    1.43    -5.22650    29.98815    15.18720
   209  H   1.0    0.13    0.97    1.43    -4.60504    32.73231    14.48417
   210  O   6.0   -0.30    1.94    1.82    14.53716    15.70989     7.75473
   211  H   1.0    0.15    1.02    1.43    15.83945    16.54985     8.74771
   212  H   1.0    0.12    0.97    1.43    14.95833    13.93434     7.72444
   213  O   6.0   -0.31    1.98    1.82    18.68580    17.86487     9.94348
   214  H   1.0    0.12    0.97    1.43    19.64308    18.25584     8.45425
   215  H   1.0    0.11    0.96    1.43    19.61376    16.51650    10.80389
   216  O   6.0   -0.32    1.94    1.82     2.16832    35.79421    10.55336
   217  H   1.0    0.14    0.97    1.43     2.02413    34.79938    12.06706
   218  H   1.0    0.15    1.01    1.43     3.91252    36.33795    10.38085
   219  N   5.0   -0.21    3.22    1.96    30.97847    21.22336    10.90868
   220  C   4.0    0.02    4.23    4.05    29.75327    21.59071    13.34579
   221  C   4.0    0.07    3.21    3.04    30.71838    19.71486    15.28059
   222  O   6.0   -0.31    1.14    1.80    30.56766    17.46029    14.83917
   223  C   4.0   -0.05    4.26    4.12    26.89644    21.14732    12.91131
   224  C   4.0   -0.06    4.15    3.90    25.30054    22.61761    14.85910
   225  C   4.0   -0.01    4.17    3.95    22.40313    22.17915    14.53835
   226  N   5.0   -0.14    3.40    2.02    21.07951    23.52397    16.55085
   227  C   4.0    0.10    3.34    3.06    18.62569    23.26151    17.09031
   228  N   5.0   -0.17    3.25    1.97    17.27426    21.48591    15.89883
   229  N   5.0   -0.19    3.23    1.96    17.70104    24.56588    19.04365
   230  H   1.0    0.08    1.03    1.43    30.35684    19.70520     9.93155
   231  H   1.0    0.03    1.05    1.44    30.11966    23.53812    13.92906
   232  H   1.0    0.04    1.03    1.43    26.38825    21.77154    11.01559
   233  H   1.0    0.05    1.03    1.43    26.51558    19.12694    13.03600
   234  H   1.0    0.04    1.03    1.43    25.82917    21.97898    16.74504
   235  H   1.0    0.03    1.02    1.43    25.70772    24.62176    14.65220
   236  H   1.0    0.05    1.02    1.43    21.78921    22.83531    12.67655
   237  H   1.0    0.04    1.02    1.43    21.99144    20.16525    14.67786
   238  H   1.0    0.07    1.07    1.44    22.05179    24.94548    17.37788
   239  H   1.0    0.11    1.04    1.43    17.76344    20.99024    14.12050
   240  H   1.0    0.11    1.05    1.44    15.38914    21.37750    16.24208
   241  H   1.0    0.08    1.03    1.43    18.76908    25.83211    19.97808
   242  H   1.0    0.09    1.03    1.43    15.85757    24.39877    19.48151
   243  N   5.0   -0.21    3.20    1.96    26.87106    41.18446     3.59523
   244  C   4.0    0.02    4.26    4.12    25.44699    38.95135     2.79129
   245  C   4.0    0.07    3.27    3.05    25.99985    38.21770     0.14642
   246  O   6.0   -0.31    1.15    1.80    25.87528    39.71921    -1.56432
   247  C   4.0   -0.05    4.41    4.39    22.58313    39.52081     2.94021
   248  C   4.0   -0.02    4.20    4.01    20.95843    37.24086     2.46642
   249  C   4.0   -0.08    4.17    3.93    21.49530    35.25235     4.43398
   250  C   4.0   -0.08    4.11    3.83    18.13410    37.98242     2.79307
   251  H   1.0    0.08    1.02    1.43    26.61793    42.78063     2.56852
   252  H   1.0    0.03    1.06    1.44    25.95978    37.45044     4.11160
   253  H   1.0    0.03    1.03    1.43    22.18174    40.27552     4.81692
   254  H   1.0    0.04    1.03    1.43    22.18174    41.00386     1.55777
   255  H   1.0    0.05    1.05    1.44    21.25846    36.49346     0.56485
   256  H   1.0    0.05    1.00    1.43    20.23183    33.64864     4.17517
   257  H   1.0    0.04    1.00    1.43    23.40493    34.50721     4.31589
   258  H   1.0    0.03    1.00    1.43    21.18962    36.02405     6.31334
   259  H   1.0    0.04    1.00    1.43    16.92400    36.35291     2.51006
   260  H   1.0    0.03    1.00    1.43    17.84179    38.71448     4.68797
   261  H   1.0    0.03    1.00    1.43    17.60525    39.43465     1.43683
   262  N   5.0   -0.23    3.17    1.95   -12.00964    37.67323    17.95688
   263  C   4.0    0.03    4.17    3.93   -11.53537    37.60308    15.23456
   264  C   4.0    0.06    3.19    3.03   -12.91383    39.69102    13.77568
   265  O   6.0   -0.31    1.10    1.80   -11.90401    40.89769    12.02166
   266  C   4.0   -0.05    4.24    4.07   -12.26251    34.99949    14.16043
   267  C   4.0   -0.05    4.15    3.90   -11.43769    34.50579    11.36127
   268  C   4.0   -0.02    4.20    4.00   -12.19532    31.77881    10.55483
   269  N   5.0   -0.14    3.45    2.05   -10.33896    30.11706    11.88063
   270  C   4.0    0.10    3.34    3.06   -10.66440    27.64712    12.05057
   271  N   5.0   -0.19    3.30    1.98   -12.87847    26.74566    11.34246
   272  N   5.0   -0.17    3.26    1.97    -8.93830    26.19783    13.13096
   273  H   1.0    0.07    1.02    1.43   -12.59285    36.06891    18.84234
   274  H   1.0    0.05    1.05    1.44    -9.50760    37.93300    14.91179
   275  H   1.0    0.05    1.03    1.43   -11.33075    33.57338    15.31883
   276  H   1.0    0.03    1.02    1.43   -14.30154    34.75415    14.31317
   277  H   1.0    0.04    1.02    1.43   -12.34894    35.88949    10.14601
   278  H   1.0    0.04    1.02    1.43    -9.40439    34.74265    11.18418
   279  H   1.0    0.03    1.03    1.43   -14.09644    31.39628    11.24131
   280  H   1.0    0.03    1.02    1.43   -12.03246    31.52011     8.52532
   281  H   1.0    0.10    1.10    1.44    -8.71694    30.90710    12.54160
   282  H   1.0    0.07    1.05    1.44   -14.10096    27.77524    10.31602
   283  H   1.0    0.08    1.03    1.43   -13.20655    24.85103    11.48378
   284  H   1.0    0.11    1.05    1.44    -7.23735    26.90457    13.61946
   285  H   1.0    0.13    1.10    1.44    -9.18567    24.30439    13.42764
   286  N   5.0   -0.22    3.23    1.96    -5.34865    24.84549     2.55174
   287  C   4.0    0.03    4.27    4.14    -5.43081    24.72571     5.26928
   288  C   4.0    0.07    3.25    3.04    -7.02728    22.63548     6.21061
   289  O   6.0   -0.30    1.16    1.80    -6.39774    21.28022     7.99290
   290  C   4.0   -0.05    4.43    4.43    -6.10903    27.20988     6.39936
   291  C   4.0   -0.03    4.18    3.95    -4.13299    29.33603     5.88205
   292  C   4.0   -0.08    4.15    3.91    -5.53569    31.66303     6.74285
   293  C   4.0   -0.07    4.09    3.78    -1.73611    28.84903     7.44557
   294  H   1.0    0.07    1.02    1.43    -5.97914    26.40334     1.63509
   295  H   1.0    0.05    1.07    1.44    -3.52252    24.20650     5.93894
   296  H   1.0    0.03    1.03    1.43    -7.95128    27.76496     5.64792
   297  H   1.0    0.05    1.04    1.43    -6.27407    26.94493     8.43589
   298  H   1.0    0.03    1.05    1.44    -3.69121    29.42497     3.87491
   299  H   1.0    0.04    1.00    1.43    -4.37786    33.35132     6.55070
   300  H   1.0    0.03    1.00    1.43    -7.24236    31.91757     5.63577
   301  H   1.0    0.04    1.01    1.43    -6.04882    31.46784     8.72276
   302  H   1.0    0.04    1.00    1.43    -0.47377    30.46857     7.37142
   303  H   1.0    0.06    1.00    1.43    -2.22062    28.51764     9.41599
   304  H   1.0    0.04    1.00    1.43    -0.72370    27.19908     6.77169
   305  N   5.0   -0.21    3.24    1.96    -3.73655    16.29317     5.30928
   306  C   4.0    0.03    4.26    4.13    -1.75829    15.92952     7.16264
   307  C   4.0    0.15    3.40    3.08    -3.00232    15.14613     9.68334
   308  O   6.0   -0.30    1.24    1.80    -1.96855    13.49275    10.97586
   309  C   4.0   -0.05    4.24    4.07    -0.16119    18.38634     7.25439
   310  C   4.0   -0.04    4.14    3.88     2.13644    18.23069     9.06813
   311  C   4.0   -0.05    4.18    3.96     3.29310    20.92475     9.20257
   312  C   4.0   -0.02    4.11    3.83     5.47667    21.20954    11.04426
   313  N   5.0   -0.10    4.09    3.11     7.75898    20.00667     9.92954
   314  H   1.0    0.08    1.03    1.43    -3.86834    18.03322     4.50064
   315  H   1.0    0.04    1.06    1.44    -0.58491    14.31774     6.61588
   316  H   1.0    0.04    1.03    1.43     0.49434    18.75185     5.34102
   317  H   1.0    0.06    1.03    1.43    -1.39505    19.92171     7.86540
   318  H   1.0    0.06    1.02    1.43     1.50474    17.66174    10.94377
   319  H   1.0    0.06    1.03    1.43     3.48771    16.85396     8.37842
   320  H   1.0    0.04    1.03    1.43     3.92622    21.47330     7.32261
   321  H   1.0    0.05    1.03    1.43     1.78914    22.21064     9.78052
   322  H   1.0    0.05    1.02    1.43     5.86668    23.21021    11.35404
   323  H   1.0    0.06    1.02    1.43     5.07462    20.32493    12.85624
   324  H   1.0    0.09    1.04    1.43     9.39683    20.49562    10.85909
   325  H   1.0    0.11    1.16    1.46     7.48321    17.97852    10.02719
   326  H   1.0    0.06    1.03    1.43     7.94387    20.51872     8.07746
   327  N   5.0   -0.14    3.47    2.06    -5.10533    16.31596    10.49653
   328  C   4.0    0.05    4.43    4.42    -6.27175    15.60749    12.81508
   329  C   4.0    0.08    3.30    3.05    -7.32210    12.92771    12.61038
   330  O   6.0   -0.29    1.13    1.80    -7.23269    11.59679    14.50836
   331  C   4.0   -0.03    4.37    4.33    -8.51809    17.19382    13.34344
   332  C   4.0    0.25    3.14    3.03    -7.71756    19.79540    14.36666
   333  O   6.0   -0.31    1.23    1.80    -5.49343    20.14751    15.00696
   334  O   6.0   -0.32    1.28    1.80    -9.53723    21.32962    14.43949
   335  H   1.0    0.11    1.09    1.44    -5.69271    17.91284     9.60268
   336  H   1.0    0.08    1.06    1.44    -4.91934    15.64674    14.38356
   337  H   1.0    0.05    1.03    1.43    -9.64959    17.45172    11.63630
   338  H   1.0    0.05    1.04    1.43    -9.70795    16.30784    14.78113
   339  N   5.0   -0.20    3.07    1.93     3.13576    12.58207    14.48086
   340  C   4.0    0.01    4.10    3.80     5.70507    13.49648    14.81458
   341  C   4.0    0.24    3.13    3.03     6.90807    15.37006    12.94177
   342  O   6.0   -0.31    1.24    1.80     8.39700    16.90881    13.91397
   343  O   6.0   -0.33    1.34    1.80     6.47036    15.25260    10.62379
   344  H   1.0    0.11    1.02    1.43     1.87181    13.53937    13.42598
   345  H   1.0    0.05    1.03    1.43     5.86975    14.37184    16.69055
   346  H   1.0    0.04    1.03    1.43     6.92553    11.81858    14.85612
   347  H   1.0    0.09    1.06    1.44    16.12965    40.75054    15.55974
   348  H   1.0    0.05    1.05    1.44     9.55430    39.88272     9.49231
   349  H   1.0    0.08    1.06    1.44    13.83257    37.46733     7.14162
   350  H   1.0    0.07    1.04    1.43     4.17800    15.85134    -5.16289
   351  H   1.0    0.08    1.07    1.44    30.71059    22.58640     9.92739
   352  H   1.0    0.04    1.04    1.44    31.47007    20.33123    16.90112
   353  H   1.0    0.08    1.07    1.44    26.44050    41.58851     5.19020
   354  H   1.0    0.04    1.05    1.44    26.49114    36.43822    -0.25751
   355  H   1.0    0.09    1.07    1.44   -10.58288    38.11467    18.77053
   356  H   1.0    0.04    1.04    1.44   -14.69690    40.13364    14.21817
   357  H   1.0    0.09    1.08    1.44    -3.73927    24.68771     2.02491
   358  H   1.0    0.05    1.05    1.44    -8.69267    22.27643     5.39290
   359  H   1.0    0.09    1.07    1.44    -3.51297    15.20708     4.01971
   360  H   1.0    0.05    1.04    1.43    -8.04633    12.31912    10.97448
   361  H   1.0    0.10    1.07    1.44     3.16996    11.04724    13.74897

  Z AO/shell   Hii/eV     exponent
  1     Wed Apr 25 08:07:45 CEST 2018   EN: 2.200 GM2: 0.406  GM3: 0.0800  RAES: 1.40
     1s    -10.707211    1.230000
  6     Wed Apr 25 08:07:45 CEST 2018   EN: 2.550 GM2: 0.538  GM3: 0.1500  RAES: 3.00
     2s    -13.970922    2.096432
     2p    -10.063292    1.800000
  7     Wed Apr 25 08:07:45 CEST 2018   EN: 3.040 GM2: 0.461  GM3:-0.0640  RAES: 1.90
     2s    -16.686243    2.339881
     2p    -12.523956    2.014332
  8     Wed Apr 25 08:07:45 CEST 2018   EN: 3.440 GM2: 0.452  GM3:-0.0517  RAES: 1.80
     2s    -20.229985    2.439742
     2p    -15.503117    2.137023
 16     Tue Apr 24 11:44:34 CEST 2018   EN: 2.580 GM2: 0.340  GM3:-0.0502  RAES: 3.10
     3s    -20.029654    1.981333
     3p    -11.377694    2.025643
     3d     -0.420282    1.702555
 no old-style atom pair restraining (fixing) potential

molecular fragmentation (1/2 indicates fragments):
111111111111111111111111111111112222222222222222222222222222222222222222
222222222222222222222222222222222222222222222222222222222222222222222222
222222222222222222222222222222222222222222222222222222222222222222222222
222222222222222222222222222222222222222222222222222222222222222222222222
222222222222222222222222222222222222222222222222222222222211222222222222
2
# atoms in fragment 1/2:    34   327
 fragment masses (1/2) :      261.32     2152.48
CMA distance (Bohr)    :  16.423
constraining FC (au)   :  0.0500
           ------------------------------------------------- 
          |        Self-Consistent Charge Iterations        |
           ------------------------------------------------- 

 Ncao       : 859
 Nao        : 858
 Nshell     : 526
 Nel        : 970
 T(el)      :   500.0
 intcut     :    35.0
 scfconv/Eh :  0.100E-06
   qconv/e  :  0.100E-04
 intneglect :  0.100E-08
 broydamp   :      0.400
 iter      E             dE          RMSdq      gap      omega  full diag
   1   -561.6783957 -0.561678E+03  0.485E+00    2.68       0.0  T
   2   -563.1301289 -0.145173E+01  0.227E+00    1.23       1.0  T
   3   -563.2320926 -0.101964E+00  0.126E+00    1.45       1.0  T
   4   -563.3390863 -0.106994E+00  0.287E-01    0.62       1.0  T
   5   -563.3438973 -0.481097E-02  0.139E-01    0.92       1.0  T
   6   -563.3453163 -0.141900E-02  0.511E-02    0.84       1.0  T
   7   -563.3455246 -0.208375E-03  0.237E-02    0.85       1.0  T
   8   -563.3455505 -0.258342E-04  0.840E-03    0.84       1.0  T
   9   -563.3455567 -0.625444E-05  0.369E-03    0.85       1.4  T
  10   -563.3455576 -0.844702E-06  0.157E-03    0.85       3.4  T
  11   -563.3455578 -0.189959E-06  0.662E-04    0.85       8.0  T
  12   -563.3455578 -0.272769E-07  0.285E-04    0.85      18.5  T
  13   -563.3455578 -0.574789E-08  0.148E-04    0.85      35.5  T
  14   -563.3455578 -0.131433E-08  0.536E-05    0.85      98.3  T
  15   -563.3455578 -0.208161E-09  0.263E-05    0.85     200.4  T
speedup 11.92
cpu  time for SCC   15.42 s
wall time for SCC    1.29 s

   *** convergence criteria satisfied after 15 iterations ***

          eigenvalues
 #    :         473        474        475        476        477        478        479        480
 occ. :        2.000      2.000      2.000      2.000      2.000      2.000      2.000      2.000
 eps  :       -10.144    -10.111    -10.102    -10.095    -10.058    -10.047    -10.040     -9.884
 #    :         481        482        483        484        485        486        487        488
 occ. :        2.000      2.000      2.000      2.000      2.000      0.000      0.000      0.000
 eps  :        -9.869     -9.865     -9.766     -9.718     -9.495     -8.647     -7.956     -7.750
 #    :         489        490        491        492        493        494        495        496
 occ. :        0.000      0.000      0.000      0.000      0.000      0.000      0.000      0.000
 eps  :        -7.662     -7.645     -7.565     -7.534     -6.920     -6.632     -6.528     -6.513


   #   Z            q   n(s)   n(p)   n(d)      C6AA      α(0)
   1   7 N     -0.392  1.314  4.078  0.000    30.153     8.155
   2   6 C      0.027  1.068  2.905  0.000    20.148     6.395
   3   6 C      0.261  1.056  2.683  0.000    22.599     7.784
   4   8 O     -0.501  1.746  4.755  0.000    23.813     6.543
   5   1 H      0.169  0.831  0.000  0.000     1.280     1.772
   6   1 H      0.038  0.962  0.000  0.000     2.473     2.459
   7   6 C     -0.053  1.053  3.001  0.000    21.525     6.604
   8   6 C     -0.091  1.060  3.032  0.000    22.241     6.714
   9   6 C      0.365  1.024  2.611  0.000    20.810     7.466
  10   8 O     -0.606  1.762  4.844  0.000    26.273     6.872
  11   8 O     -0.619  1.773  4.846  0.000    26.593     6.914
  12   1 H      0.045  0.955  0.000  0.000     2.382     2.413
  13   1 H      0.032  0.968  0.000  0.000     2.556     2.500
  14   1 H      0.032  0.968  0.000  0.000     2.565     2.504
  15   1 H      0.033  0.967  0.000  0.000     2.544     2.494
  16   7 N     -0.163  1.250  3.913  0.000    24.521     7.355
  17   6 C      0.023  1.063  2.913  0.000    20.186     6.398
  18   6 C      0.198  1.091  2.711  0.000    23.774     7.985
  19   8 O     -0.372  1.757  4.615  0.000    21.128     6.163
  20   6 C     -0.074  1.053  3.021  0.000    21.869     6.650
  21   6 C     -0.007  1.050  2.957  0.000    20.695     6.476
  22  16 S     -0.212  1.915  4.244  0.053   150.071    20.618
  23   6 C     -0.071  1.059  3.013  0.000    21.942     6.682
  24   1 H      0.231  0.769  0.000  0.000     0.963     1.537
  25   1 H      0.086  0.914  0.000  0.000     1.922     2.168
  26   1 H      0.084  0.916  0.000  0.000     1.939     2.177
  27   1 H      0.081  0.919  0.000  0.000     1.965     2.192
  28   1 H      0.052  0.948  0.000  0.000     2.292     2.368
  29   1 H      0.067  0.933  0.000  0.000     2.122     2.278
  30   1 H      0.079  0.921  0.000  0.000     1.992     2.207
  31   1 H      0.065  0.935  0.000  0.000     2.137     2.286
  32   1 H      0.062  0.938  0.000  0.000     2.181     2.309
  33   7 N     -0.395  1.319  4.076  0.000    30.227     8.165
  34   6 C      0.025  1.069  2.906  0.000    20.169     6.397
  35   6 C      0.264  1.057  2.679  0.000    22.555     7.777
  36   8 O     -0.531  1.760  4.771  0.000    24.481     6.634
  37   1 H      0.157  0.843  0.000  0.000     1.352     1.822
  38   1 H      0.053  0.947  0.000  0.000     2.284     2.364
  39   6 C     -0.074  1.055  3.020  0.000    21.912     6.663
  40   6 C     -0.079  1.047  3.032  0.000    21.997     6.676
  41   6 C     -0.015  1.048  2.967  0.000    20.910     6.523
  42   7 N     -0.168  1.241  3.927  0.000    24.632     7.371
  43   6 C      0.240  1.025  2.735  0.000    22.983     7.849
  44   7 N     -0.234  1.229  4.005  0.000    26.141     7.593
  45   7 N     -0.298  1.320  3.978  0.000    27.687     7.815
  46   1 H      0.063  0.937  0.000  0.000     2.165     2.301
  47   1 H      0.057  0.943  0.000  0.000     2.236     2.338
  48   1 H      0.053  0.947  0.000  0.000     2.279     2.361
  49   1 H      0.070  0.930  0.000  0.000     2.088     2.259
  50   1 H      0.068  0.932  0.000  0.000     2.105     2.269
  51   1 H      0.074  0.926  0.000  0.000     2.041     2.234
  52   1 H      0.226  0.774  0.000  0.000     0.984     1.554
  53   1 H      0.232  0.768  0.000  0.000     0.955     1.531
  54   1 H      0.232  0.768  0.000  0.000     0.958     1.533
  55   1 H      0.232  0.768  0.000  0.000     0.955     1.531
  56   1 H      0.264  0.736  0.000  0.000     0.830     1.427
  57   7 N     -0.177  1.260  3.917  0.000    24.830     7.401
  58   6 C      0.021  1.073  2.905  0.000    20.224     6.404
  59   6 C      0.273  1.045  2.682  0.000    22.381     7.748
  60   8 O     -0.509  1.749  4.760  0.000    23.991     6.567
  61   6 C     -0.068  1.057  3.011  0.000    21.800     6.647
  62   6 C     -0.090  1.060  3.030  0.000    22.222     6.712
  63   6 C      0.369  1.024  2.606  0.000    20.743     7.453
  64   8 O     -0.608  1.756  4.852  0.000    26.320     6.878
  65   8 O     -0.640  1.775  4.865  0.000    27.115     6.981
  66   1 H      0.236  0.764  0.000  0.000     0.939     1.518
  67   1 H      0.064  0.936  0.000  0.000     2.153     2.295
  68   1 H      0.062  0.938  0.000  0.000     2.172     2.305
  69   1 H      0.069  0.931  0.000  0.000     2.096     2.264
  70   1 H      0.028  0.972  0.000  0.000     2.612     2.528
  71   1 H      0.025  0.975  0.000  0.000     2.657     2.549
  72   7 N     -0.173  1.237  3.936  0.000    24.735     7.386
  73   6 C      0.023  1.057  2.921  0.000    20.193     6.397
  74   6 C      0.272  1.046  2.682  0.000    22.409     7.752
  75   8 O     -0.490  1.745  4.745  0.000    23.557     6.507
  76   6 C     -0.086  1.068  3.018  0.000    22.134     6.697
  77   6 C     -0.019  1.053  2.966  0.000    20.878     6.499
  78   6 C     -0.117  1.042  3.075  0.000    22.754     6.795
  79   6 C     -0.117  1.041  3.076  0.000    22.767     6.799
  80   1 H      0.238  0.762  0.000  0.000     0.933     1.513
  81   1 H      0.081  0.919  0.000  0.000     1.964     2.192
  82   1 H      0.064  0.936  0.000  0.000     2.155     2.295
  83   1 H      0.070  0.930  0.000  0.000     2.085     2.258
  84   1 H      0.065  0.935  0.000  0.000     2.146     2.291
  85   1 H      0.051  0.949  0.000  0.000     2.308     2.376
  86   1 H      0.035  0.965  0.000  0.000     2.518     2.482
  87   1 H      0.049  0.951  0.000  0.000     2.335     2.389
  88   1 H      0.052  0.948  0.000  0.000     2.300     2.372
  89   1 H      0.048  0.952  0.000  0.000     2.348     2.396
  90   1 H      0.027  0.973  0.000  0.000     2.629     2.536
  91   7 N     -0.177  1.241  3.935  0.000    24.829     7.401
  92   6 C      0.033  1.054  2.913  0.000    20.019     6.370
  93   6 C      0.273  1.046  2.680  0.000    22.379     7.748
  94   8 O     -0.532  1.770  4.762  0.000    24.503     6.637
  95   6 C     -0.111  1.057  3.054  0.000    22.597     6.763
  96   6 C      0.300  1.016  2.684  0.000    21.916     7.665
  97   8 O     -0.511  1.760  4.751  0.000    24.035     6.573
  98   7 N     -0.254  1.252  4.002  0.000    26.608     7.661
  99   1 H      0.213  0.787  0.000  0.000     1.044     1.600
 100   1 H      0.085  0.915  0.000  0.000     1.933     2.174
 101   1 H      0.103  0.897  0.000  0.000     1.756     2.073
 102   1 H      0.084  0.916  0.000  0.000     1.942     2.179
 103   1 H      0.235  0.765  0.000  0.000     0.942     1.521
 104   1 H      0.245  0.755  0.000  0.000     0.902     1.488
 105   7 N     -0.183  1.257  3.927  0.000    24.973     7.422
 106   6 C      0.040  1.055  2.905  0.000    19.906     6.353
 107   6 C      0.275  1.045  2.681  0.000    22.356     7.743
 108   8 O     -0.498  1.747  4.751  0.000    23.742     6.533
 109   6 C     -0.055  1.053  3.002  0.000    21.550     6.607
 110   6 C     -0.094  1.061  3.033  0.000    22.301     6.724
 111   6 C      0.364  1.028  2.608  0.000    20.833     7.470
 112   8 O     -0.627  1.760  4.867  0.000    26.792     6.940
 113   8 O     -0.582  1.751  4.831  0.000    25.681     6.794
 114   1 H      0.237  0.763  0.000  0.000     0.935     1.515
 115   1 H      0.044  0.956  0.000  0.000     2.392     2.419
 116   1 H      0.052  0.948  0.000  0.000     2.300     2.372
 117   1 H      0.046  0.954  0.000  0.000     2.371     2.408
 118   1 H      0.021  0.979  0.000  0.000     2.712     2.575
 119   1 H      0.051  0.949  0.000  0.000     2.309     2.376
 120   7 N     -0.200  1.255  3.945  0.000    25.334     7.475
 121   6 C      0.032  1.064  2.904  0.000    20.057     6.379
 122   6 C      0.267  1.055  2.678  0.000    22.500     7.767
 123   8 O     -0.490  1.757  4.733  0.000    23.566     6.509
 124   6 C     -0.123  1.042  3.081  0.000    22.924     6.827
 125   1 H      0.225  0.775  0.000  0.000     0.988     1.557
 126   1 H      0.060  0.940  0.000  0.000     2.193     2.316
 127   1 H      0.065  0.935  0.000  0.000     2.142     2.289
 128   1 H      0.077  0.923  0.000  0.000     2.008     2.216
 129   1 H      0.076  0.924  0.000  0.000     2.025     2.225
 130   7 N     -0.190  1.251  3.939  0.000    25.114     7.443
 131   6 C      0.037  1.044  2.919  0.000    19.947     6.359
 132   6 C      0.280  1.045  2.676  0.000    22.269     7.728
 133   8 O     -0.503  1.753  4.750  0.000    23.847     6.547
 134   6 C     -0.073  1.059  3.014  0.000    21.878     6.655
 135   6 C     -0.016  1.060  2.956  0.000    20.827     6.491
 136   6 C     -0.117  1.042  3.075  0.000    22.770     6.799
 137   6 C     -0.121  1.042  3.079  0.000    22.879     6.821
 138   1 H      0.219  0.781  0.000  0.000     1.014     1.578
 139   1 H      0.077  0.923  0.000  0.000     2.008     2.216
 140   1 H      0.044  0.956  0.000  0.000     2.398     2.421
 141   1 H      0.058  0.942  0.000  0.000     2.225     2.332
 142   1 H      0.054  0.946  0.000  0.000     2.273     2.358
 143   1 H      0.060  0.940  0.000  0.000     2.201     2.320
 144   1 H      0.031  0.969  0.000  0.000     2.571     2.508
 145   1 H      0.050  0.950  0.000  0.000     2.322     2.383
 146   1 H      0.063  0.937  0.000  0.000     2.159     2.298
 147   1 H      0.045  0.955  0.000  0.000     2.385     2.415
 148   1 H      0.034  0.966  0.000  0.000     2.527     2.486
 149   7 N     -0.206  1.262  3.944  0.000    25.474     7.496
 150   6 C      0.031  1.067  2.903  0.000    20.070     6.380
 151   6 C      0.278  1.037  2.684  0.000    22.287     7.731
 152   8 O     -0.528  1.752  4.776  0.000    24.408     6.624
 153   6 C     -0.039  1.046  2.992  0.000    21.259     6.564
 154   6 C     -0.084  1.060  3.024  0.000    22.095     6.692
 155   6 C      0.368  1.024  2.607  0.000    20.752     7.455
 156   8 O     -0.653  1.771  4.882  0.000    27.467     7.027
 157   8 O     -0.663  1.775  4.888  0.000    27.715     7.058
 158   1 H      0.204  0.796  0.000  0.000     1.086     1.633
 159   1 H      0.065  0.935  0.000  0.000     2.143     2.289
 160   1 H      0.034  0.966  0.000  0.000     2.535     2.490
 161   1 H      0.035  0.965  0.000  0.000     2.515     2.480
 162   1 H      0.027  0.973  0.000  0.000     2.633     2.538
 163   1 H      0.040  0.960  0.000  0.000     2.444     2.445
 164   7 N     -0.171  1.254  3.917  0.000    24.698     7.381
 165   6 C      0.040  1.063  2.898  0.000    19.921     6.357
 166   6 C      0.213  1.088  2.699  0.000    23.496     7.938
 167   8 O     -0.369  1.758  4.611  0.000    21.079     6.156
 168   6 C     -0.077  1.067  3.010  0.000    21.967     6.674
 169   6 C     -0.009  1.064  2.945  0.000    20.714     6.475
 170   6 C     -0.120  1.040  3.080  0.000    22.853     6.816
 171   6 C     -0.111  1.039  3.072  0.000    22.679     6.791
 172   1 H      0.224  0.776  0.000  0.000     0.990     1.559
 173   1 H      0.082  0.918  0.000  0.000     1.956     2.187
 174   1 H      0.073  0.927  0.000  0.000     2.058     2.243
 175   1 H      0.055  0.945  0.000  0.000     2.257     2.349
 176   1 H      0.031  0.969  0.000  0.000     2.570     2.507
 177   1 H      0.053  0.947  0.000  0.000     2.283     2.363
 178   1 H      0.043  0.957  0.000  0.000     2.404     2.425
 179   1 H      0.046  0.954  0.000  0.000     2.376     2.411
 180   1 H      0.050  0.950  0.000  0.000     2.323     2.383
 181   1 H      0.045  0.955  0.000  0.000     2.385     2.415
 182   1 H      0.042  0.958  0.000  0.000     2.419     2.432
 183   8 O     -0.641  1.780  4.861  0.000    26.184     6.906
 184   1 H      0.332  0.668  0.000  0.000     0.631     1.248
 185   1 H      0.308  0.692  0.000  0.000     0.697     1.311
 186   8 O     -0.624  1.741  4.883  0.000    25.764     6.851
 187   1 H      0.305  0.695  0.000  0.000     0.706     1.320
 188   1 H      0.283  0.717  0.000  0.000     0.774     1.382
 189   8 O     -0.639  1.741  4.898  0.000    26.149     6.902
 190   1 H      0.318  0.682  0.000  0.000     0.671     1.287
 191   1 H      0.303  0.697  0.000  0.000     0.712     1.326
 192   8 O     -0.620  1.743  4.877  0.000    25.669     6.838
 193   1 H      0.318  0.682  0.000  0.000     0.670     1.285
 194   1 H      0.295  0.705  0.000  0.000     0.737     1.348
 195   8 O     -0.644  1.767  4.877  0.000    26.253     6.915
 196   1 H      0.341  0.659  0.000  0.000     0.608     1.225
 197   1 H      0.299  0.701  0.000  0.000     0.724     1.337
 198   8 O     -0.637  1.745  4.892  0.000    26.091     6.894
 199   1 H      0.310  0.690  0.000  0.000     0.692     1.307
 200   1 H      0.306  0.694  0.000  0.000     0.702     1.316
 201   8 O     -0.622  1.760  4.862  0.000    25.730     6.846
 202   1 H      0.288  0.712  0.000  0.000     0.757     1.367
 203   1 H      0.322  0.678  0.000  0.000     0.658     1.275
 204   8 O     -0.615  1.745  4.870  0.000    25.551     6.822
 205   1 H      0.296  0.704  0.000  0.000     0.734     1.345
 206   1 H      0.294  0.706  0.000  0.000     0.741     1.352
 207   8 O     -0.625  1.736  4.888  0.000    25.784     6.853
 208   1 H      0.318  0.682  0.000  0.000     0.670     1.286
 209   1 H      0.309  0.691  0.000  0.000     0.696     1.310
 210   8 O     -0.677  1.782  4.895  0.000    27.099     7.026
 211   1 H      0.325  0.675  0.000  0.000     0.651     1.267
 212   1 H      0.327  0.673  0.000  0.000     0.645     1.261
 213   8 O     -0.634  1.778  4.856  0.000    26.021     6.885
 214   1 H      0.327  0.673  0.000  0.000     0.645     1.262
 215   1 H      0.345  0.655  0.000  0.000     0.600     1.217
 216   8 O     -0.626  1.751  4.875  0.000    25.828     6.859
 217   1 H      0.291  0.709  0.000  0.000     0.748     1.359
 218   1 H      0.312  0.688  0.000  0.000     0.686     1.301
 219   7 N     -0.387  1.321  4.066  0.000    30.014     8.137
 220   6 C      0.033  1.058  2.910  0.000    20.043     6.377
 221   6 C      0.206  1.083  2.711  0.000    23.632     7.961
 222   8 O     -0.364  1.756  4.609  0.000    20.983     6.142
 223   6 C     -0.074  1.063  3.011  0.000    21.914     6.664
 224   6 C     -0.089  1.063  3.026  0.000    22.202     6.709
 225   6 C     -0.024  1.055  2.969  0.000    21.095     6.555
 226   7 N     -0.144  1.216  3.929  0.000    24.120     7.294
 227   6 C      0.231  1.023  2.746  0.000    23.155     7.878
 228   7 N     -0.241  1.249  3.992  0.000    26.295     7.616
 229   7 N     -0.251  1.230  4.020  0.000    26.522     7.649
 230   1 H      0.160  0.840  0.000  0.000     1.337     1.811
 231   1 H      0.062  0.938  0.000  0.000     2.176     2.307
 232   1 H      0.052  0.948  0.000  0.000     2.290     2.366
 233   1 H      0.053  0.947  0.000  0.000     2.277     2.360
 234   1 H      0.070  0.930  0.000  0.000     2.089     2.260
 235   1 H      0.072  0.928  0.000  0.000     2.059     2.244
 236   1 H      0.073  0.927  0.000  0.000     2.055     2.242
 237   1 H      0.079  0.921  0.000  0.000     1.986     2.204
 238   1 H      0.235  0.765  0.000  0.000     0.945     1.523
 239   1 H      0.233  0.767  0.000  0.000     0.954     1.530
 240   1 H      0.235  0.765  0.000  0.000     0.944     1.522
 241   1 H      0.253  0.747  0.000  0.000     0.873     1.463
 242   1 H      0.241  0.759  0.000  0.000     0.919     1.501
 243   7 N     -0.389  1.326  4.063  0.000    30.076     8.145
 244   6 C      0.033  1.053  2.914  0.000    20.041     6.377
 245   6 C      0.214  1.071  2.714  0.000    23.468     7.934
 246   8 O     -0.375  1.746  4.629  0.000    21.188     6.171
 247   6 C     -0.068  1.062  3.006  0.000    21.788     6.643
 248   6 C     -0.010  1.052  2.959  0.000    20.725     6.475
 249   6 C     -0.120  1.040  3.080  0.000    22.838     6.811
 250   6 C     -0.118  1.046  3.072  0.000    22.816     6.810
 251   1 H      0.163  0.837  0.000  0.000     1.318     1.798
 252   1 H      0.059  0.941  0.000  0.000     2.211     2.325
 253   1 H      0.058  0.942  0.000  0.000     2.218     2.329
 254   1 H      0.046  0.954  0.000  0.000     2.367     2.406
 255   1 H      0.014  0.986  0.000  0.000     2.831     2.631
 256   1 H      0.044  0.956  0.000  0.000     2.398     2.422
 257   1 H      0.035  0.965  0.000  0.000     2.519     2.482
 258   1 H      0.052  0.948  0.000  0.000     2.299     2.371
 259   1 H      0.030  0.970  0.000  0.000     2.591     2.517
 260   1 H      0.050  0.950  0.000  0.000     2.315     2.380
 261   1 H      0.043  0.957  0.000  0.000     2.405     2.425
 262   7 N     -0.391  1.311  4.080  0.000    30.128     8.152
 263   6 C      0.041  1.056  2.903  0.000    19.915     6.358
 264   6 C      0.196  1.097  2.706  0.000    23.809     7.991
 265   8 O     -0.391  1.772  4.619  0.000    21.508     6.218
 266   6 C     -0.083  1.066  3.017  0.000    22.078     6.690
 267   6 C     -0.080  1.060  3.020  0.000    22.028     6.683
 268   6 C     -0.031  1.068  2.964  0.000    21.223     6.575
 269   7 N     -0.167  1.229  3.938  0.000    24.613     7.368
 270   6 C      0.240  1.013  2.747  0.000    22.990     7.850
 271   7 N     -0.263  1.231  4.032  0.000    26.828     7.693
 272   7 N     -0.277  1.249  4.028  0.000    27.165     7.741
 273   1 H      0.171  0.829  0.000  0.000     1.266     1.763
 274   1 H      0.050  0.950  0.000  0.000     2.319     2.382
 275   1 H      0.073  0.927  0.000  0.000     2.048     2.238
 276   1 H      0.067  0.933  0.000  0.000     2.124     2.279
 277   1 H      0.065  0.935  0.000  0.000     2.146     2.291
 278   1 H      0.068  0.932  0.000  0.000     2.111     2.272
 279   1 H      0.092  0.908  0.000  0.000     1.859     2.132
 280   1 H      0.086  0.914  0.000  0.000     1.917     2.165
 281   1 H      0.235  0.765  0.000  0.000     0.945     1.523
 282   1 H      0.252  0.748  0.000  0.000     0.875     1.465
 283   1 H      0.228  0.772  0.000  0.000     0.974     1.546
 284   1 H      0.222  0.778  0.000  0.000     1.002     1.568
 285   1 H      0.241  0.759  0.000  0.000     0.920     1.503
 286   7 N     -0.392  1.303  4.089  0.000    30.151     8.155
 287   6 C      0.047  1.037  2.916  0.000    19.806     6.338
 288   6 C      0.194  1.085  2.721  0.000    23.850     7.998
 289   8 O     -0.390  1.764  4.626  0.000    21.475     6.213
 290   6 C     -0.076  1.063  3.013  0.000    21.932     6.663
 291   6 C     -0.010  1.058  2.951  0.000    20.716     6.474
 292   6 C     -0.126  1.043  3.083  0.000    22.944     6.825
 293   6 C     -0.106  1.036  3.070  0.000    22.574     6.775
 294   1 H      0.179  0.821  0.000  0.000     1.219     1.730
 295   1 H      0.045  0.955  0.000  0.000     2.378     2.412
 296   1 H      0.061  0.939  0.000  0.000     2.182     2.310
 297   1 H      0.050  0.950  0.000  0.000     2.317     2.380
 298   1 H      0.039  0.961  0.000  0.000     2.462     2.454
 299   1 H      0.050  0.950  0.000  0.000     2.316     2.380
 300   1 H      0.056  0.944  0.000  0.000     2.245     2.343
 301   1 H      0.051  0.949  0.000  0.000     2.308     2.376
 302   1 H      0.033  0.967  0.000  0.000     2.538     2.491
 303   1 H      0.038  0.962  0.000  0.000     2.480     2.463
 304   1 H      0.022  0.978  0.000  0.000     2.700     2.570
 305   7 N     -0.392  1.316  4.076  0.000    30.160     8.156
 306   6 C      0.031  1.063  2.906  0.000    20.073     6.383
 307   6 C      0.266  1.057  2.677  0.000    22.506     7.769
 308   8 O     -0.529  1.760  4.769  0.000    24.447     6.629
 309   6 C     -0.071  1.066  3.005  0.000    21.863     6.657
 310   6 C     -0.062  1.053  3.010  0.000    21.704     6.634
 311   6 C     -0.079  1.055  3.024  0.000    21.999     6.677
 312   6 C     -0.007  1.046  2.961  0.000    20.802     6.511
 313   7 N     -0.178  1.251  3.927  0.000    24.841     7.403
 314   1 H      0.157  0.843  0.000  0.000     1.357     1.825
 315   1 H      0.044  0.956  0.000  0.000     2.400     2.423
 316   1 H      0.042  0.958  0.000  0.000     2.417     2.431
 317   1 H      0.060  0.940  0.000  0.000     2.198     2.318
 318   1 H      0.022  0.978  0.000  0.000     2.696     2.568
 319   1 H      0.059  0.941  0.000  0.000     2.213     2.326
 320   1 H      0.052  0.948  0.000  0.000     2.290     2.366
 321   1 H      0.075  0.925  0.000  0.000     2.030     2.228
 322   1 H      0.079  0.921  0.000  0.000     1.993     2.208
 323   1 H      0.084  0.916  0.000  0.000     1.935     2.175
 324   1 H      0.274  0.726  0.000  0.000     0.797     1.398
 325   1 H      0.305  0.695  0.000  0.000     0.698     1.309
 326   1 H      0.234  0.766  0.000  0.000     0.948     1.526
 327   7 N     -0.169  1.242  3.927  0.000    24.658     7.375
 328   6 C      0.052  1.042  2.906  0.000    19.700     6.319
 329   6 C      0.199  1.088  2.712  0.000    23.759     7.984
 330   8 O     -0.389  1.753  4.636  0.000    21.465     6.212
 331   6 C     -0.096  1.067  3.029  0.000    22.304     6.720
 332   6 C      0.376  1.018  2.606  0.000    20.625     7.432
 333   8 O     -0.604  1.773  4.831  0.000    26.214     6.864
 334   8 O     -0.595  1.752  4.843  0.000    25.993     6.835
 335   1 H      0.229  0.771  0.000  0.000     0.970     1.543
 336   1 H      0.069  0.931  0.000  0.000     2.100     2.266
 337   1 H      0.066  0.934  0.000  0.000     2.130     2.282
 338   1 H      0.053  0.947  0.000  0.000     2.279     2.361
 339   7 N     -0.389  1.311  4.078  0.000    30.069     8.144
 340   6 C     -0.013  1.057  2.956  0.000    20.902     6.527
 341   6 C      0.352  1.031  2.617  0.000    21.022     7.503
 342   8 O     -0.617  1.756  4.860  0.000    26.532     6.906
 343   8 O     -0.589  1.765  4.824  0.000    25.842     6.816
 344   1 H      0.141  0.859  0.000  0.000     1.464     1.895
 345   1 H      0.029  0.971  0.000  0.000     2.603     2.523
 346   1 H      0.031  0.969  0.000  0.000     2.566     2.505
 347   1 H      0.181  0.819  0.000  0.000     1.210     1.723
 348   1 H      0.104  0.896  0.000  0.000     1.750     2.068
 349   1 H      0.186  0.814  0.000  0.000     1.181     1.702
 350   1 H      0.072  0.928  0.000  0.000     2.061     2.245
 351   1 H      0.188  0.812  0.000  0.000     1.170     1.694
 352   1 H      0.075  0.925  0.000  0.000     2.027     2.226
 353   1 H      0.192  0.808  0.000  0.000     1.145     1.676
 354   1 H      0.049  0.951  0.000  0.000     2.332     2.388
 355   1 H      0.180  0.820  0.000  0.000     1.212     1.724
 356   1 H      0.082  0.918  0.000  0.000     1.959     2.189
 357   1 H      0.164  0.836  0.000  0.000     1.308     1.792
 358   1 H      0.079  0.921  0.000  0.000     1.987     2.204
 359   1 H      0.186  0.814  0.000  0.000     1.182     1.703
 360   1 H      0.075  0.925  0.000  0.000     2.033     2.230
 361   1 H      0.177  0.823  0.000  0.000     1.229     1.737

 Mol. C6AA /au·bohr⁶  :    1112202.109495
 Mol. C8AA /au·bohr⁸  :   24180311.532840
 Mol. α(0) /au        :       1564.878637

 
 Wiberg/Mayer (AO) data. WBOs > 0.1 written file <wbo>
 largest (>0.05) Wiberg bond orders for each atom
           total WBO             WBO to atom ...
     1  N   2.990    C    2 1.012    H  347 0.958    H    5 0.952
     2  C   3.981    N    1 1.012    C    7 0.985    H    6 0.964    C    3 0.916    O    4 0.051
     3  C   3.940    O    4 1.607    N   16 1.336    C    2 0.916
     4  O   1.956    C    3 1.607    N   16 0.192    C    2 0.051
     5  H   0.971    N    1 0.952
     6  H   0.998    C    2 0.964
     7  C   3.995    C    8 0.997    C    2 0.985    H   13 0.973    H   12 0.971
     8  C   3.992    C    7 0.997    H   14 0.977    H   15 0.969    C    9 0.938
     9  C   3.935    O   10 1.536    O   11 1.437    C    8 0.938
    10  O   1.837    C    9 1.536    O   11 0.212
    11  O   1.870    C    9 1.437    O   10 0.212    H   56 0.099
    12  H   0.998    C    7 0.971
    13  H   0.999    C    7 0.973
    14  H   0.999    C    8 0.977
    15  H   0.998    C    8 0.969
    16  N   3.475    C    3 1.336    C   17 0.951    H   24 0.913    O    4 0.192
    17  C   3.962    C   18 0.992    C   20 0.967    N   16 0.951    H   25 0.946
    18  C   3.890    O   19 1.839    C   17 0.992    H  348 0.949
    19  O   2.064    C   18 1.839
    20  C   3.981    C   21 1.012    H   26 0.968    C   17 0.967    H   27 0.963
    21  C   3.983    C   20 1.012    S   22 1.000    H   29 0.967    H   28 0.962
    22  S   2.111    C   23 1.007    C   21 1.000
    23  C   3.973    S   22 1.007    H   32 0.984    H   31 0.980    H   30 0.978
    24  H   0.947    N   16 0.913
    25  H   0.993    C   17 0.946
    26  H   0.993    C   20 0.968
    27  H   0.993    C   20 0.963
    28  H   0.997    C   21 0.962
    29  H   0.996    C   21 0.967
    30  H   0.994    C   23 0.978
    31  H   0.996    C   23 0.980
    32  H   0.996    C   23 0.984
    33  N   2.988    C   34 1.002    H   37 0.957    H  349 0.956
    34  C   3.982    N   33 1.002    C   39 0.988    H   38 0.962    C   35 0.937
    35  C   3.933    O   36 1.574    N   57 1.339    C   34 0.937
    36  O   1.928    C   35 1.574    N   57 0.190
    37  H   0.975    N   33 0.957
    38  H   0.997    C   34 0.962
    39  C   3.992    C   40 1.001    C   34 0.988    H   46 0.972    H   47 0.967
    40  C   3.992    C   41 1.009    C   39 1.001    H   49 0.973    H   48 0.970
    41  C   3.958    C   40 1.009    N   42 0.977    H   51 0.957    H   50 0.957
    42  N   3.415    C   43 1.278    C   41 0.977    H   52 0.917    N   44 0.091    N   45 0.086
    43  C   3.974    N   44 1.333    N   45 1.320    N   42 1.278
    44  N   3.419    C   43 1.333    H   54 0.923    H   53 0.909    N   45 0.099    N   42 0.091
    45  N   3.318    C   43 1.320    H   55 0.909    H   56 0.803    N   44 0.099    N   42 0.086
    46  H   0.996    C   39 0.972
    47  H   0.997    C   39 0.967
    48  H   0.997    C   40 0.970
    49  H   0.995    C   40 0.973
    50  H   0.995    C   41 0.957
    51  H   0.994    C   41 0.957
    52  H   0.949    N   42 0.917
    53  H   0.946    N   44 0.909
    54  H   0.946    N   44 0.923
    55  H   0.946    N   45 0.909
    56  H   0.930    N   45 0.803    O   11 0.099
    57  N   3.478    C   35 1.339    C   58 0.970    H   66 0.890    O   36 0.190
    58  C   3.965    N   57 0.970    C   61 0.970    H   67 0.956    C   59 0.943
    59  C   3.948    O   60 1.600    N   72 1.319    C   58 0.943
    60  O   1.944    C   59 1.600    N   72 0.190
    61  C   3.986    C   62 1.013    H   68 0.970    C   58 0.970    H   69 0.958
    62  C   3.986    C   61 1.013    H   70 0.967    H   71 0.960    C   63 0.925    O   64 0.054
    63  C   3.934    O   64 1.534    O   65 1.438    C   62 0.925
    64  O   1.828    C   63 1.534    O   65 0.210    C   62 0.054
    65  O   1.833    C   63 1.438    O   64 0.210    H  190 0.079
    66  H   0.944    N   57 0.890
    67  H   0.995    C   58 0.956
    68  H   0.996    C   61 0.970
    69  H   0.995    C   61 0.958
    70  H   0.999    C   62 0.967
    71  H   0.999    C   62 0.960
    72  N   3.478    C   59 1.319    C   73 0.991    H   80 0.889    O   60 0.190
    73  C   3.958    N   72 0.991    C   76 0.966    H   81 0.943    C   74 0.936
    74  C   3.939    O   75 1.621    N   91 1.296    C   73 0.936
    75  O   1.954    C   74 1.621    N   91 0.186
    76  C   3.978    C   77 0.987    H   83 0.971    H   82 0.971    C   73 0.966
    77  C   3.990    C   79 1.011    C   78 1.010    C   76 0.987    H   84 0.955
    78  C   3.993    C   77 1.010    H   86 0.985    H   87 0.984    H   85 0.983
    79  C   3.994    C   77 1.011    H   89 0.984    H   88 0.982    H   90 0.978
    80  H   0.943    N   72 0.889
    81  H   0.993    C   73 0.943
    82  H   0.996    C   76 0.971
    83  H   0.994    C   76 0.971
    84  H   0.996    C   77 0.955
    85  H   0.996    C   78 0.983
    86  H   0.999    C   78 0.985
    87  H   0.997    C   78 0.984
    88  H   0.997    C   79 0.982
    89  H   0.997    C   79 0.984
    90  H   0.999    C   79 0.978
    91  N   3.456    C   74 1.296    C   92 0.973    H   99 0.919    O   75 0.186
    92  C   3.971    C   95 0.979    N   91 0.973    C   93 0.953    H  100 0.942
    93  C   3.944    O   94 1.573    N  105 1.332    C   92 0.953
    94  O   1.912    C   93 1.573    N  105 0.196
    95  C   3.986    C   92 0.979    H  102 0.967    C   96 0.957    H  101 0.947    O   97 0.052
    96  C   3.948    O   97 1.591    N   98 1.374    C   95 0.957
    97  O   1.961    C   96 1.591    N   98 0.199    C   95 0.052
    98  N   3.443    C   96 1.374    H  103 0.918    H  104 0.914    O   97 0.199
    99  H   0.955    N   91 0.919
   100  H   0.992    C   92 0.942
   101  H   0.989    C   95 0.947
   102  H   0.993    C   95 0.967
   103  H   0.944    N   98 0.918
   104  H   0.939    N   98 0.914
   105  N   3.486    C   93 1.332    C  106 0.984    H  114 0.878    O   94 0.196
   106  C   3.967    N  105 0.984    C  109 0.964    H  115 0.952    C  107 0.944
   107  C   3.947    O  108 1.611    N  120 1.301    C  106 0.944
   108  O   1.956    C  107 1.611    N  120 0.192
   109  C   3.986    C  110 1.010    H  116 0.972    H  117 0.969    C  106 0.964
   110  C   3.982    C  109 1.010    H  118 0.971    H  119 0.957    C  111 0.921
   111  C   3.938    O  113 1.542    O  112 1.435    C  110 0.921
   112  O   1.833    C  111 1.435    O  113 0.209
   113  O   1.842    C  111 1.542    O  112 0.209
   114  H   0.944    N  105 0.878
   115  H   0.998    C  106 0.952
   116  H   0.997    C  109 0.972
   117  H   0.997    C  109 0.969
   118  H   0.999    C  110 0.971
   119  H   0.997    C  110 0.957
   120  N   3.456    C  107 1.301    C  121 0.973    H  125 0.893    O  108 0.192
   121  C   3.959    C  124 0.994    N  120 0.973    H  126 0.952    C  122 0.934
   122  C   3.944    O  123 1.646    N  130 1.285    C  121 0.934
   123  O   1.959    C  122 1.646    N  130 0.200
   124  C   3.982    C  121 0.994    H  129 0.981    H  127 0.980    H  128 0.973
   125  H   0.949    N  120 0.893
   126  H   0.996    C  121 0.952
   127  H   0.995    C  124 0.980
   128  H   0.994    C  124 0.973
   129  H   0.994    C  124 0.981
   130  N   3.458    C  122 1.285    C  131 0.979    H  138 0.903    O  123 0.200
   131  C   3.964    C  134 0.980    N  130 0.979    C  132 0.961    H  139 0.936
   132  C   3.942    O  133 1.631    N  149 1.269    C  131 0.961
   133  O   1.936    C  132 1.631    N  149 0.195
   134  C   3.980    C  131 0.980    C  135 0.978    H  140 0.970    H  141 0.969
   135  C   3.988    C  136 1.012    C  137 1.010    C  134 0.978    H  142 0.964
   136  C   3.993    C  135 1.012    H  145 0.984    H  144 0.983    H  143 0.983
   137  C   3.993    C  135 1.010    H  147 0.985    H  148 0.984    H  146 0.983
   138  H   0.952    N  130 0.903
   139  H   0.994    C  131 0.936
   140  H   0.998    C  134 0.970
   141  H   0.996    C  134 0.969
   142  H   0.997    C  135 0.964
   143  H   0.995    C  136 0.983
   144  H   0.999    C  136 0.983
   145  H   0.997    C  136 0.984
   146  H   0.996    C  137 0.983
   147  H   0.998    C  137 0.985
   148  H   0.999    C  137 0.984
   149  N   3.442    C  132 1.269    C  150 0.973    H  158 0.911    O  133 0.195
   150  C   3.968    C  153 0.982    N  149 0.973    H  159 0.952    C  151 0.942
   151  C   3.951    O  152 1.583    N  164 1.355    C  150 0.942
   152  O   1.898    C  151 1.583    N  164 0.197
   153  C   3.992    C  154 1.007    C  150 0.982    H  161 0.973    H  160 0.973
   154  C   3.991    C  153 1.007    H  162 0.971    H  163 0.957    C  155 0.946
   155  C   3.937    O  156 1.496    O  157 1.472    C  154 0.946
   156  O   1.781    C  155 1.496    O  157 0.215
   157  O   1.755    C  155 1.472    O  156 0.215
   158  H   0.958    N  149 0.911
   159  H   0.995    C  150 0.952
   160  H   0.999    C  153 0.973
   161  H   0.998    C  153 0.973
   162  H   0.999    C  154 0.971
   163  H   0.998    C  154 0.957
   164  N   3.490    C  151 1.355    C  165 0.953    H  172 0.892    O  152 0.197
   165  C   3.956    C  166 0.989    C  168 0.966    N  164 0.953    H  173 0.949    O  167 0.052
   166  C   3.901    O  167 1.882    C  165 0.989    H  350 0.957
   167  O   2.021    C  166 1.882    C  165 0.052
   168  C   3.976    C  169 0.977    H  175 0.971    H  174 0.970    C  165 0.966
   169  C   3.990    C  170 1.012    C  171 1.011    C  168 0.977    H  176 0.969
   170  C   3.994    C  169 1.012    H  179 0.986    H  177 0.985    H  178 0.984
   171  C   3.995    C  169 1.011    H  181 0.985    H  182 0.982    H  180 0.982
   172  H   0.950    N  164 0.892
   173  H   0.993    C  165 0.949
   174  H   0.995    C  168 0.970
   175  H   0.997    C  168 0.971
   176  H   0.999    C  169 0.969
   177  H   0.997    C  170 0.985
   178  H   0.998    C  170 0.984
   179  H   0.998    C  170 0.986
   180  H   0.997    C  171 0.982
   181  H   0.998    C  171 0.985
   182  H   0.998    C  171 0.982
   183  O   1.795    H  185 0.905    H  184 0.889
   184  H   0.890    O  183 0.889
   185  H   0.905    O  183 0.905
   186  O   1.803    H  188 0.918    H  187 0.855
   187  H   0.907    O  186 0.855
   188  H   0.920    O  186 0.918
   189  O   1.835    H  191 0.895    H  190 0.810
   190  H   0.899    O  189 0.810    O   65 0.079
   191  H   0.908    O  189 0.895
   192  O   1.821    H  193 0.891    H  194 0.884
   193  H   0.899    O  192 0.891
   194  H   0.913    O  192 0.884
   195  O   1.792    H  197 0.907    H  196 0.883
   196  H   0.883    O  195 0.883
   197  H   0.911    O  195 0.907
   198  O   1.819    H  200 0.894    H  199 0.852
   199  H   0.904    O  198 0.852
   200  H   0.906    O  198 0.894
   201  O   1.807    H  202 0.915    H  203 0.878
   202  H   0.917    O  201 0.915
   203  H   0.896    O  201 0.878
   204  O   1.815    H  206 0.900    H  205 0.879
   205  H   0.912    O  204 0.879
   206  H   0.914    O  204 0.900
   207  O   1.838    H  209 0.900    H  208 0.854
   208  H   0.899    O  207 0.854
   209  H   0.905    O  207 0.900
   210  O   1.784    H  212 0.892    H  211 0.842
   211  H   0.894    O  210 0.842    O  213 0.051
   212  H   0.893    O  210 0.892
   213  O   1.849    H  214 0.892    H  215 0.880    H  211 0.051
   214  H   0.893    O  213 0.892
   215  H   0.881    O  213 0.880
   216  O   1.813    H  217 0.905    H  218 0.854
   217  H   0.915    O  216 0.905
   218  H   0.903    O  216 0.854
   219  N   2.991    C  220 1.005    H  230 0.959    H  351 0.952
   220  C   3.984    N  219 1.005    C  221 0.985    H  231 0.966    C  223 0.955    O  222 0.055
   221  C   3.897    O  222 1.907    C  220 0.985    H  352 0.953
   222  O   2.044    C  221 1.907    C  220 0.055
   223  C   3.991    C  224 1.006    H  233 0.975    H  232 0.973    C  220 0.955
   224  C   3.989    C  223 1.006    C  225 0.999    H  234 0.976    H  235 0.974
   225  C   3.955    C  224 0.999    N  226 0.983    H  237 0.966    H  236 0.962
   226  N   3.457    C  227 1.310    C  225 0.983    H  238 0.913    N  229 0.101    N  228 0.097
   227  C   3.976    N  228 1.321    N  229 1.312    N  226 1.310
   228  N   3.391    C  227 1.321    H  239 0.911    H  240 0.902    N  229 0.100    N  226 0.097
   229  N   3.390    C  227 1.312    H  242 0.923    H  241 0.914    N  226 0.101    N  228 0.100
   230  H   0.974    N  219 0.959
   231  H   0.996    C  220 0.966
   232  H   0.997    C  223 0.973
   233  H   0.997    C  223 0.975
   234  H   0.995    C  224 0.976
   235  H   0.995    C  224 0.974
   236  H   0.995    C  225 0.962
   237  H   0.994    C  225 0.966
   238  H   0.945    N  226 0.913
   239  H   0.946    N  228 0.911
   240  H   0.945    N  228 0.902
   241  H   0.936    N  229 0.914
   242  H   0.941    N  229 0.923
   243  N   2.989    C  244 1.006    H  251 0.957    H  353 0.950
   244  C   3.986    N  243 1.006    C  245 1.003    H  252 0.958    C  247 0.939    O  246 0.055
   245  C   3.905    O  246 1.887    C  244 1.003    H  354 0.954
   246  O   2.034    C  245 1.887    C  244 0.055
   247  C   3.992    C  248 1.004    H  254 0.974    H  253 0.968    C  244 0.939
   248  C   3.997    C  249 1.012    C  247 1.004    C  250 0.998    H  255 0.968
   249  C   3.994    C  248 1.012    H  258 0.983    H  256 0.982    H  257 0.979
   250  C   3.995    C  248 0.998    H  261 0.988    H  259 0.986    H  260 0.985
   251  H   0.974    N  243 0.957
   252  H   0.997    C  244 0.958
   253  H   0.997    C  247 0.968
   254  H   0.998    C  247 0.974
   255  H   1.000    C  248 0.968
   256  H   0.998    C  249 0.982
   257  H   0.999    C  249 0.979
   258  H   0.997    C  249 0.983
   259  H   0.999    C  250 0.986
   260  H   0.997    C  250 0.985
   261  H   0.998    C  250 0.988
   262  N   2.991    C  263 1.011    H  355 0.957    H  273 0.952
   263  C   3.984    N  262 1.011    C  264 0.983    C  266 0.959    H  274 0.958    O  265 0.055
   264  C   3.888    O  265 1.881    C  263 0.983    H  356 0.955
   265  O   2.016    C  264 1.881    C  263 0.055
   266  C   3.988    C  267 1.002    H  276 0.975    H  275 0.967    C  263 0.959
   267  C   3.989    C  268 1.006    C  266 1.002    H  277 0.975    H  278 0.972
   268  C   3.951    C  267 1.006    N  269 0.968    H  280 0.965    H  279 0.960
   269  N   3.445    C  270 1.318    C  268 0.968    H  281 0.876    N  272 0.111    N  271 0.094
   270  C   3.976    N  272 1.337    N  269 1.318    N  271 1.294
   271  N   3.369    C  270 1.294    H  283 0.928    H  282 0.907    N  272 0.101    N  269 0.094
   272  N   3.403    C  270 1.337    H  284 0.909    H  285 0.850    N  269 0.111    N  271 0.101
   273  H   0.971    N  262 0.952
   274  H   0.997    C  263 0.958
   275  H   0.995    C  266 0.967
   276  H   0.996    C  266 0.975
   277  H   0.995    C  267 0.975
   278  H   0.995    C  267 0.972
   279  H   0.991    C  268 0.960
   280  H   0.992    C  268 0.965
   281  H   0.945    N  269 0.876
   282  H   0.936    N  271 0.907
   283  H   0.948    N  271 0.928
   284  H   0.951    N  272 0.909
   285  H   0.942    N  272 0.850    O  334 0.071
   286  N   2.992    C  287 1.005    H  357 0.959    H  294 0.947
   287  C   3.985    N  286 1.005    C  288 1.002    C  290 0.962    H  295 0.943    O  289 0.051
   288  C   3.894    O  289 1.858    C  287 1.002    H  358 0.951
   289  O   2.030    C  288 1.858    C  287 0.051
   290  C   3.987    C  291 0.980    H  297 0.970    H  296 0.969    C  287 0.962
   291  C   3.994    C  292 1.011    C  293 1.010    C  290 0.980    H  298 0.967
   292  C   3.991    C  291 1.011    H  300 0.983    H  301 0.982    H  299 0.981
   293  C   3.994    C  291 1.010    H  303 0.985    H  302 0.982    H  304 0.981
   294  H   0.968    N  286 0.947
   295  H   0.998    C  287 0.943
   296  H   0.996    C  290 0.969
   297  H   0.997    C  290 0.970
   298  H   0.998    C  291 0.967
   299  H   0.996    C  292 0.981
   300  H   0.997    C  292 0.983
   301  H   0.997    C  292 0.982
   302  H   0.998    C  293 0.982
   303  H   0.999    C  293 0.985
   304  H   0.999    C  293 0.981
   305  N   2.993    C  306 1.014    H  314 0.956    H  359 0.955
   306  C   3.982    N  305 1.014    C  309 0.976    H  315 0.958    C  307 0.942
   307  C   3.937    O  308 1.608    N  327 1.309    C  306 0.942
   308  O   1.915    C  307 1.608    N  327 0.190
   309  C   3.992    C  310 1.004    C  306 0.976    H  316 0.972    H  317 0.972
   310  C   3.994    C  309 1.004    C  311 1.003    H  318 0.979    H  319 0.969
   311  C   3.990    C  312 1.013    C  310 1.003    H  320 0.969    H  321 0.967
   312  C   3.935    C  311 1.013    H  322 0.969    H  323 0.969    N  313 0.963
   313  N   3.629    C  312 0.963    H  326 0.920    H  324 0.884    H  325 0.750    O  343 0.059
   314  H   0.975    N  305 0.956
   315  H   0.998    C  306 0.958
   316  H   0.998    C  309 0.972
   317  H   0.996    C  309 0.972
   318  H   0.999    C  310 0.979
   319  H   0.996    C  310 0.969
   320  H   0.997    C  311 0.969
   321  H   0.994    C  311 0.967
   322  H   0.993    C  312 0.969
   323  H   0.993    C  312 0.969
   324  H   0.925    N  313 0.884
   325  H   0.907    N  313 0.750    O  343 0.134
   326  H   0.945    N  313 0.920
   327  N   3.473    C  307 1.309    C  328 0.992    H  335 0.895    O  308 0.190
   328  C   3.972    N  327 0.992    C  329 0.974    C  331 0.970    H  336 0.941    O  330 0.056
   329  C   3.905    O  330 1.861    C  328 0.974    H  360 0.953
   330  O   2.012    C  329 1.861    C  328 0.056
   331  C   3.981    C  328 0.970    H  337 0.964    H  338 0.957    C  332 0.908
   332  C   3.938    O  333 1.524    O  334 1.457    C  331 0.908
   333  O   1.862    C  332 1.524    O  334 0.208
   334  O   1.844    C  332 1.457    O  333 0.208    H  285 0.071
   335  H   0.948    N  327 0.895
   336  H   0.995    C  328 0.941
   337  H   0.996    C  331 0.964
   338  H   0.996    C  331 0.957
   339  N   2.993    C  340 1.022    H  361 0.959    H  344 0.958
   340  C   3.978    N  339 1.022    H  345 0.970    H  346 0.961    C  341 0.932
   341  C   3.934    O  342 1.507    O  343 1.447    C  340 0.932
   342  O   1.815    C  341 1.507    O  343 0.209
   343  O   1.922    C  341 1.447    O  342 0.209    H  325 0.134    N  313 0.059
   344  H   0.980    N  339 0.958
   345  H   0.999    C  340 0.970
   346  H   0.999    C  340 0.961
   347  H   0.967    N    1 0.958
   348  H   0.989    C   18 0.949
   349  H   0.965    N   33 0.956
   350  H   0.995    C  166 0.957
   351  H   0.965    N  219 0.952
   352  H   0.994    C  221 0.953
   353  H   0.963    N  243 0.950
   354  H   0.998    C  245 0.954
   355  H   0.967    N  262 0.957
   356  H   0.993    C  264 0.955
   357  H   0.973    N  286 0.959
   358  H   0.994    C  288 0.951
   359  H   0.965    N  305 0.955
   360  H   0.994    C  329 0.953
   361  H   0.969    N  339 0.959
 
molecular dipole:
                 x           y           z       tot (Debye)
 q only:      -16.956     -26.001      -3.233
   full:      -14.213     -25.905      -3.009      75.493
molecular quadrupole (traceless):
                xx          xy          yy          xz          yz          zz
 q only:       71.512    -493.282      78.377     370.170      40.715    -149.889
  q+dip:       61.830    -347.535      71.772     402.537      60.918    -133.602
   full:       62.656    -347.839      73.033     401.267      59.013    -135.690
speedup 11.92
cpu  time for grad   17.46 s
wall time for grad    1.46 s

SCC energy    :    -563.3596275
rep           :       6.2957399
ES            :       2.3541111
AES           :      -0.1376060
AXC           :       0.1672104
disp          :      -0.4241128
XB            :       0.0000000
fix           :       0.0000000
Gborn         :       0.0000000
Gsasa         :       0.0000000
Ghb           :       0.0000000
Gshift        :       0.0000000
Gsolv         :      -0.5907575     -370.71
Etot ala COSMO:    -563.3596275
grad norm     :       0.6734463
total E       :    -557.0257423
atomizationE  :      95.5071705    59931.65
(atE without considering molecular charge,
 total energy contains solvation terms)
H-L gap (eV)  :          0.8480

------------------------------------------------------------------------
 * finished run on 2019/02/16 at 08:10:44.237     
------------------------------------------------------------------------
 total:
 * wall-time:     0 d,  0 h,  0 min,  1.800 sec
 *  cpu-time:     0 d,  0 h,  0 min, 21.349 sec
 * ratio c/w:    11.859 speedup
 SCF:
 * wall-time:     0 d,  0 h,  0 min,  1.609 sec
 *  cpu-time:     0 d,  0 h,  0 min, 19.195 sec
 * ratio c/w:    11.931 speedup

