      -----------------------------------------------------------      
     |                   =====================                   |     
     |                           x T B                           |     
     |                   =====================                   |     
     |                         S. Grimme                         |     
     |          Mulliken Center for Theoretical Chemistry        |     
     |                    University of Bonn                     |     
     |                 Version 6.0.1 (SAW181210)                 |     
      -----------------------------------------------------------      

   This program is distributed in the hope that it will be useful,
   but WITHOUT ANY WARRANTY; without even the implied warranty of
   MERCHANTABILITY or FITNESS FOR A PARTICULAR PURPOSE.
   
   FOR NON-COMMERCIAL, ACADEMIA USE ONLY.
   
   Cite this work as:
   S. Grimme, C. Bannwarth, P. Shushkov, J. Comput. Theory Chem., 2017,
   13, 1989-2009.
   C. Bannwarth, S. Ehlert and S. Grimme., ChemRxiv, 2018, preprint.
   http://doi.org/10.26434/chemrxiv.7246238.v1
   
   for sTDA-xTB:
   S. Grimme and C. Bannwarth, J. Chem. Phys., 2016, 145, 054103.
   
   in the mass-spec context:
   V. Asgeirsson, C. Bauer and S. Grimme, Chem. Sci., 2017, 8, 4879.
   
   if GBSA is used:
   P. Shushkov, F. März and S. Grimme, unpublished.
   
   for ANC optimizer:
   S. Grimme, unpublished.
   Rational Function algorithm used in ANCopt:
   F. Eckert, P. Pulay, H.-J. Werner, J. Comput. Chem., 1997, 18, 1473.
   
   with help from (in alphabetical order)
   C. Bannwarth, F. Bohle, G. Brandenburg, E. Caldeweyher, M. Checinski,
   S. Dohm, S. Ehlert, S. Ehrlich, F. März, H. Neugebauer, J. Pisarek,
   P. Pracht, P. Shushkov, and S. Spicher.
   
 * started run on 2019/02/16 at 08:10:00.201     
========================================================================
 # omp threads = 12
========================================================================
number of atoms            : 227
number of electrons        : 606
charge                     : 0
spin                       : .0
first test random number   : .4165

########################################################################
# WARNING! Please study the warnings concerning your input carefully
#  - Process number higher than OMP_NUM_THREADS, I hope you know what you are doing.
########################################################################

           ------------------------------------------------- 
          |                 G F N 2 - x T B                 |
          | Geometry, Frequencies, Noncovalent interactions |
          |            JCTC 2018 parametrisation            |
           ------------------------------------------------- 
 
      method parameters     
 k(s)        :  1.8500
 k(p)        :  2.2300
 k(d)        :  2.2300
 k(f)        :  2.0000
 kEN (H0ij)  : -2.0000
 D4 a1       :  0.5200
 D4 a2       :  5.0000
 D4 s6       :  1.0000
 D4 s8       :  2.7000
 D4 s9       :  5.0000
 alphaj      :  2.0000

 Solvent             : h2o
 Using internal parameter file: .param_gbsa2_h2o
 Gsolv ref. state (COSMO-RS): gsolv [1 M gas/solution]
 temperature (mdtemp)       :    298.150000000000     
 dielectric constant        :    80.2000000000000     
 rho                        :    1.00000000000000     
 mass                       :    18.0000000000000     
 surface tension            :    15.5689454083859     
 probe radius               :   0.975313790000000     
 vdW radii scaling          :    1.00000000000000     
 Gshift (Eh)                :   1.857443126794793E-003
 c1                         :    1.55243817000000     
 soset                      :   0.130326360000000     
 HB correction              :  T

            Z     q(EN)     CN     RAES       Cart. coordinates
     1  N   5.0   -0.19    3.27    1.97    28.50270    36.79420   -13.01248
     2  C   4.0    0.03    4.30    4.20    28.75703    39.50689   -12.50403
     3  C   4.0    0.14    3.42    3.09    28.72038    39.88637    -9.63530
     4  O   6.0   -0.30    1.28    1.80    27.67011    38.27397    -8.29565
     5  C   4.0   -0.03    4.38    4.34    26.46963    40.83792   -13.63299
     6  C   4.0   -0.02    3.60    3.16    26.20581    40.49288   -16.40098
     7  C   4.0   -0.05    3.47    3.10    24.81272    38.48158   -17.37939
     8  C   4.0   -0.04    3.48    3.10    27.45641    42.13383   -18.01887
     9  C   4.0   -0.04    3.39    3.08    24.76421    38.13007   -19.95288
    10  C   4.0   -0.04    3.37    3.07    27.47889    41.67711   -20.60829
    11  C   4.0   -0.04    3.38    3.07    26.12724    39.68342   -21.56303
    12  H   1.0    0.10    1.03    1.43    27.11296    35.86513   -12.07424
    13  H   1.0    0.05    1.04    1.44    30.52055    40.16488   -13.35172
    14  H   1.0    0.05    1.04    1.43    24.79690    40.09357   -12.66996
    15  H   1.0    0.05    1.03    1.43    26.58788    42.85417   -13.18042
    16  H   1.0    0.05    1.03    1.43    23.82873    37.21565   -16.12238
    17  H   1.0    0.05    1.03    1.43    28.51593    43.68741   -17.22822
    18  H   1.0    0.05    1.03    1.43    23.72473    36.55168   -20.71724
    19  H   1.0    0.05    1.03    1.43    28.55719    42.89048   -21.84482
    20  H   1.0    0.05    1.03    1.43    26.19493    39.28166   -23.56396
    21  N   5.0   -0.14    3.56    2.12    29.85008    41.82703    -8.51649
    22  C   4.0    0.05    4.62    4.69    29.81550    42.35633    -5.91945
    23  C   4.0    0.15    3.50    3.11    28.46056    44.84830    -5.48484
    24  O   6.0   -0.33    1.30    1.80    28.72342    46.68165    -6.94364
    25  H   1.0    0.09    1.09    1.44    30.54953    43.20232    -9.65788
    26  H   1.0    0.07    1.08    1.44    28.79125    40.83592    -4.95907
    27  C   4.0    0.06    4.33    4.25    32.46041    42.39272    -4.99329
    28  O   6.0   -0.25    2.19    1.86    32.23390    42.34892    -2.38609
    29  C   4.0   -0.06    4.18    3.97    33.83655    44.60024    -6.17929
    30  H   1.0    0.05    1.05    1.44    33.37553    40.60898    -5.55642
    31  H   1.0    0.14    1.04    1.43    32.70042    43.97212    -1.68485
    32  H   1.0    0.06    1.01    1.43    35.79696    44.60136    -5.56745
    33  H   1.0    0.05    1.01    1.43    33.80432    44.45984    -8.22106
    34  H   1.0    0.07    1.01    1.43    33.00310    46.37682    -5.59358
    35  N   5.0   -0.13    3.47    2.06    26.87106    44.79807    -3.59523
    36  C   4.0    0.04    4.36    4.31    25.44699    47.03118    -2.79129
    37  C   4.0    0.09    3.27    3.05    25.99985    47.76484    -0.14642
    38  O   6.0   -0.30    1.19    1.80    25.87528    46.26332     1.56432
    39  C   4.0   -0.04    4.41    4.39    22.58313    46.46172    -2.94021
    40  C   4.0   -0.02    4.20    4.01    20.95843    48.74167    -2.46642
    41  C   4.0   -0.07    4.17    3.93    21.49530    50.73018    -4.43398
    42  C   4.0   -0.07    4.11    3.83    18.13410    48.00011    -2.79307
    43  H   1.0    0.11    1.09    1.44    26.61793    43.20190    -2.56852
    44  H   1.0    0.06    1.07    1.44    25.95978    48.53209    -4.11160
    45  H   1.0    0.04    1.03    1.43    22.18174    45.70701    -4.81692
    46  H   1.0    0.05    1.03    1.43    22.18174    44.97867    -1.55777
    47  H   1.0    0.05    1.05    1.44    21.25846    49.48907    -0.56485
    48  H   1.0    0.05    1.00    1.43    20.23183    52.33389    -4.17517
    49  H   1.0    0.05    1.00    1.43    23.40493    51.47532    -4.31589
    50  H   1.0    0.04    1.00    1.43    21.18962    49.95848    -6.31334
    51  H   1.0    0.04    1.00    1.43    16.92400    49.62962    -2.51006
    52  H   1.0    0.05    1.00    1.43    17.84179    47.26805    -4.68797
    53  H   1.0    0.04    1.00    1.43    17.60525    46.54788    -1.43683
    54  O   6.0   -0.32    1.95    1.82    38.33135    36.69245    -2.91656
    55  H   1.0    0.13    0.97    1.43    38.34270    38.39397    -2.27445
    56  H   1.0    0.13    0.97    1.43    36.58662    36.22203    -3.08194
    57  O   6.0   -0.31    1.93    1.82    31.69100    46.47715   -11.86285
    58  H   1.0    0.13    0.97    1.43    32.21365    48.02316   -12.66501
    59  H   1.0    0.14    0.98    1.43    30.59498    46.99955   -10.49277
    60  O   6.0   -0.31    1.95    1.82    36.69245    47.65118    -2.91656
    61  H   1.0    0.13    0.97    1.43    38.39397    47.63983    -2.27445
    62  H   1.0    0.13    0.97    1.43    36.22203    49.39591    -3.08194
    63  O   6.0   -0.31    1.95    1.82    36.69245    38.33135     2.91656
    64  H   1.0    0.13    0.97    1.43    38.39397    38.34270     2.27445
    65  H   1.0    0.12    0.97    1.43    36.22203    36.58662     3.08194
    66  O   6.0   -0.31    1.95    1.82    35.84944    51.11443    -9.68605
    67  H   1.0    0.13    0.97    1.43    36.28312    49.38604   -10.03830
    68  H   1.0    0.13    0.97    1.43    37.34123    51.91573    -9.03479
    69  O   6.0   -0.31    1.95    1.82    34.86810    35.84944    -9.68605
    70  H   1.0    0.13    0.97    1.43    36.59649    36.28312   -10.03830
    71  H   1.0    0.13    0.97    1.43    34.06680    37.34123    -9.03479
    72  O   6.0   -0.32    1.96    1.82    31.66873    50.16622   -16.97862
    73  H   1.0    0.13    0.97    1.43    31.28232    48.54744   -17.69729
    74  H   1.0    0.14    0.97    1.43    33.48326    50.27194   -16.85871
    75  N   5.0   -0.19    3.36    2.00    32.02813    55.92043   -17.35437
    76  C   4.0    0.03    4.26    4.11    32.73959    56.36211   -14.75987
    77  C   4.0    0.08    3.18    3.03    35.56771    55.78014   -14.48529
    78  O   6.0   -0.28    1.12    1.80    36.63705    54.08148   -15.67344
    79  H   1.0    0.10    1.04    1.44    32.09052    54.08379   -17.90301
    80  H   1.0    0.04    1.05    1.44    32.44746    58.36377   -14.34509
    81  C   4.0   -0.03    4.32    4.24    30.95942    54.79279   -13.07509
    82  C   4.0   -0.02    3.65    3.20    28.33101    55.22938   -14.02018
    83  C   4.0   -0.04    3.57    3.15    27.43629    54.01482   -16.18374
    84  C   4.0   -0.04    3.48    3.11    26.72208    56.84004   -12.75262
    85  C   4.0   -0.04    3.44    3.09    25.06042    54.50999   -17.12357
    86  C   4.0   -0.04    3.44    3.09    24.28264    57.23386   -13.58331
    87  C   4.0    0.07    3.46    3.10    23.46885    56.12687   -15.82229
    88  O   6.0   -0.24    2.11    1.84    21.13226    56.62857   -16.81112
    89  H   1.0    0.06    1.03    1.43    31.46408    52.80368   -13.25126
    90  H   1.0    0.04    1.03    1.43    31.18701    55.37292   -11.11627
    91  H   1.0    0.07    1.06    1.44    28.55930    52.58793   -17.08495
    92  H   1.0    0.05    1.03    1.43    27.36754    57.75729   -11.04813
    93  H   1.0    0.06    1.03    1.43    24.39479    53.63420   -18.83274
    94  H   1.0    0.06    1.03    1.43    23.01899    58.41224   -12.50256
    95  H   1.0    0.12    1.03    1.43    20.07079    57.38801   -15.53112
    96  N   5.0   -0.19    3.33    1.99    44.15550    29.85008    -8.51649
    97  C   4.0    0.04    4.40    4.39    43.62620    29.81550    -5.91945
    98  C   4.0    0.08    3.28    3.05    41.13423    28.46056    -5.48484
    99  O   6.0   -0.29    1.18    1.80    39.30088    28.72342    -6.94364
   100  H   1.0    0.09    1.03    1.43    42.78021    30.54953    -9.65788
   101  H   1.0    0.05    1.06    1.44    45.14662    28.79125    -4.95907
   102  C   4.0    0.06    4.33    4.26    43.58981    32.46041    -4.99329
   103  O   6.0   -0.26    2.16    1.85    43.63361    32.23390    -2.38609
   104  C   4.0   -0.06    4.18    3.97    41.38229    33.83655    -6.17929
   105  H   1.0    0.04    1.05    1.44    45.37355    33.37553    -5.55642
   106  H   1.0    0.12    1.03    1.43    42.01041    32.70042    -1.68485
   107  H   1.0    0.06    1.01    1.43    41.38117    35.79696    -5.56745
   108  H   1.0    0.05    1.01    1.43    41.52269    33.80432    -8.22106
   109  H   1.0    0.07    1.01    1.43    39.60571    33.00310    -5.59358
   110  N   5.0   -0.18    3.21    1.96    35.84992    26.77711     0.37903
   111  C   4.0    0.03    4.26    4.13    34.79518    27.32027     2.86750
   112  C   4.0    0.08    3.20    3.04    33.76719    24.84794     4.03810
   113  O   6.0   -0.26    1.13    1.80    32.22020    23.62879     2.83565
   114  C   4.0   -0.03    4.31    4.21    32.81117    29.37148     2.64255
   115  C   4.0   -0.04    4.28    4.16    32.08471    30.12649     5.28115
   116  C   4.0    0.16    3.24    3.04    30.41934    32.49328     5.14356
   117  O   6.0   -0.30    1.25    1.80    28.44145    32.48441     4.02600
   118  N   5.0   -0.19    3.21    1.96    31.22832    34.47951     6.37107
   119  H   1.0    0.12    1.04    1.43    34.58066    26.88115    -1.05914
   120  H   1.0    0.04    1.05    1.44    36.37007    27.98562     4.04166
   121  H   1.0    0.05    1.03    1.43    33.61249    30.96060     1.60355
   122  H   1.0    0.07    1.03    1.43    31.16529    28.66171     1.62356
   123  H   1.0    0.06    1.03    1.43    30.96342    28.63346     6.15464
   124  H   1.0    0.04    1.03    1.43    33.74195    30.49634     6.44463
   125  H   1.0    0.08    1.03    1.43    32.77716    34.43616     7.49902
   126  H   1.0    0.12    1.06    1.44    30.12969    36.05136     6.49528
   127  N   5.0   -0.20    3.33    1.99    29.85008    44.15550     8.51649
   128  C   4.0    0.04    4.53    4.57    29.81550    43.62620     5.91945
   129  C   4.0    0.15    3.49    3.11    28.46056    41.13423     5.48484
   130  O   6.0   -0.31    1.29    1.80    28.72342    39.30088     6.94364
   131  H   1.0    0.09    1.03    1.43    30.54953    42.78021     9.65788
   132  H   1.0    0.06    1.07    1.44    28.79125    45.14662     4.95907
   133  C   4.0    0.06    4.34    4.27    32.46041    43.58981     4.99329
   134  O   6.0   -0.25    2.19    1.86    32.23390    43.63361     2.38609
   135  C   4.0   -0.06    4.18    3.97    33.83655    41.38229     6.17929
   136  H   1.0    0.04    1.05    1.44    33.37553    45.37355     5.55642
   137  H   1.0    0.14    1.04    1.43    32.70042    42.01041     1.68485
   138  H   1.0    0.06    1.01    1.43    35.79696    41.38117     5.56745
   139  H   1.0    0.04    1.01    1.43    33.80432    41.52269     8.22106
   140  H   1.0    0.07    1.01    1.43    33.00310    39.60571     5.59358
   141  N   5.0   -0.13    3.47    2.06    26.87106    41.18446     3.59523
   142  C   4.0    0.04    4.45    4.46    25.44699    38.95135     2.79129
   143  C   4.0    0.15    3.44    3.09    25.99985    38.21770     0.14642
   144  O   6.0   -0.30    1.31    1.80    25.87528    39.71921    -1.56432
   145  C   4.0   -0.04    4.41    4.39    22.58313    39.52081     2.94021
   146  C   4.0   -0.02    4.20    4.01    20.95843    37.24086     2.46642
   147  C   4.0   -0.06    4.17    3.93    21.49530    35.25235     4.43398
   148  C   4.0   -0.07    4.11    3.83    18.13410    37.98242     2.79307
   149  H   1.0    0.11    1.09    1.44    26.61793    42.78063     2.56852
   150  H   1.0    0.06    1.07    1.44    25.95978    37.45044     4.11160
   151  H   1.0    0.05    1.03    1.43    22.18174    40.27552     4.81692
   152  H   1.0    0.05    1.03    1.43    22.18174    41.00386     1.55777
   153  H   1.0    0.06    1.05    1.44    21.25846    36.49346     0.56485
   154  H   1.0    0.05    1.00    1.43    20.23183    33.64864     4.17517
   155  H   1.0    0.06    1.00    1.43    23.40493    34.50721     4.31589
   156  H   1.0    0.05    1.00    1.43    21.18962    36.02405     6.31334
   157  H   1.0    0.05    1.00    1.43    16.92400    36.35291     2.51006
   158  H   1.0    0.04    1.00    1.43    17.84179    38.71448     4.68797
   159  H   1.0    0.04    1.00    1.43    17.60525    39.43465     1.43683
   160  N   5.0   -0.13    3.46    2.05    26.77711    35.84992    -0.37903
   161  C   4.0    0.04    4.34    4.26    27.32027    34.79518    -2.86750
   162  C   4.0    0.09    3.20    3.04    24.84794    33.76719    -4.03810
   163  O   6.0   -0.28    1.13    1.80    23.62879    32.22020    -2.83565
   164  C   4.0   -0.03    4.31    4.21    29.37148    32.81117    -2.64255
   165  C   4.0   -0.03    4.28    4.16    30.12649    32.08471    -5.28115
   166  C   4.0    0.16    3.24    3.04    32.49328    30.41934    -5.14356
   167  O   6.0   -0.29    1.25    1.80    32.48441    28.44145    -4.02600
   168  N   5.0   -0.18    3.21    1.96    34.47951    31.22832    -6.37107
   169  H   1.0    0.10    1.08    1.44    26.88115    34.58066     1.05914
   170  H   1.0    0.06    1.06    1.44    27.98562    36.37007    -4.04166
   171  H   1.0    0.05    1.03    1.43    30.96060    33.61249    -1.60355
   172  H   1.0    0.07    1.03    1.43    28.66171    31.16529    -1.62356
   173  H   1.0    0.06    1.03    1.43    28.63346    30.96342    -6.15464
   174  H   1.0    0.05    1.03    1.43    30.49634    33.74195    -6.44463
   175  H   1.0    0.10    1.05    1.44    34.43616    32.77716    -7.49902
   176  H   1.0    0.13    1.06    1.44    36.05136    30.12969    -6.49528
   177  N   5.0   -0.21    3.19    1.95    15.32144    39.99464   -14.48287
   178  C   4.0    0.03    4.20    3.99    16.76298    42.04858   -13.45843
   179  C   4.0    0.08    3.26    3.05    15.59107    44.58495   -13.87661
   180  O   6.0   -0.28    1.11    1.80    15.24760    46.19239   -12.20298
   181  C   4.0   -0.04    4.27    4.14    19.50686    42.07258   -14.56151
   182  C   4.0   -0.01    3.51    3.12    20.99704    44.50451   -13.95690
   183  C   4.0   -0.03    3.51    3.12    21.96495    45.06361   -11.58018
   184  C   4.0   -0.04    3.44    3.09    21.45440    46.26485   -15.83483
   185  C   4.0   -0.04    3.34    3.06    23.24060    47.23795   -10.87986
   186  C   4.0   -0.03    3.39    3.08    22.69934    48.51787   -15.19797
   187  C   4.0   -0.03    3.38    3.07    23.48799    49.03466   -12.74539
   188  H   1.0    0.08    1.02    1.43    16.06707    38.95330   -15.91828
   189  H   1.0    0.05    1.05    1.44    16.87956    41.84230   -11.39205
   190  H   1.0    0.04    1.02    1.43    20.49410    40.42292   -13.83590
   191  H   1.0    0.04    1.03    1.43    19.33679    41.91867   -16.60773
   192  H   1.0    0.05    1.03    1.43    21.68045    43.63259   -10.13204
   193  H   1.0    0.05    1.03    1.43    20.78163    45.98106   -17.73719
   194  H   1.0    0.06    1.03    1.43    23.98523    47.47858    -9.00688
   195  H   1.0    0.05    1.03    1.43    22.94963    49.93583   -16.63950
   196  H   1.0    0.06    1.03    1.43    24.35227    50.82662   -12.37136
   197  N   5.0   -0.19    3.21    1.96    35.84992    59.20543    -0.37903
   198  C   4.0    0.03    4.26    4.13    34.79518    58.66226    -2.86750
   199  C   4.0    0.08    3.20    3.04    33.76719    61.13459    -4.03810
   200  O   6.0   -0.27    1.13    1.80    32.22020    62.35375    -2.83565
   201  C   4.0   -0.04    4.31    4.21    32.81117    56.61105    -2.64255
   202  C   4.0   -0.04    4.28    4.16    32.08471    55.85604    -5.28115
   203  C   4.0    0.16    3.24    3.04    30.41934    53.48925    -5.14356
   204  O   6.0   -0.30    1.23    1.80    28.44145    53.49812    -4.02600
   205  N   5.0   -0.19    3.21    1.96    31.22832    51.50302    -6.37107
   206  H   1.0    0.09    1.03    1.43    34.58066    59.10138     1.05914
   207  H   1.0    0.04    1.05    1.44    36.37007    57.99691    -4.04166
   208  H   1.0    0.05    1.03    1.43    33.61249    55.02193    -1.60355
   209  H   1.0    0.06    1.03    1.43    31.16529    57.32083    -1.62356
   210  H   1.0    0.05    1.03    1.43    30.96342    57.34907    -6.15464
   211  H   1.0    0.04    1.03    1.43    33.74195    55.48619    -6.44463
   212  H   1.0    0.10    1.05    1.44    32.77716    51.54637    -7.49902
   213  H   1.0    0.12    1.06    1.44    30.12969    49.93118    -6.49528
   214  H   1.0    0.09    1.09    1.44    28.18104    36.55407   -14.66518
   215  H   1.0    0.06    1.05    1.44    26.49114    49.54431     0.25751
   216  H   1.0    0.10    1.12    1.45    30.43212    56.45247   -17.60384
   217  H   1.0    0.05    1.05    1.44    36.63131    56.79855   -13.30095
   218  H   1.0    0.09    1.09    1.44    45.53083    30.80874    -8.80286
   219  H   1.0    0.06    1.04    1.43    40.92753    27.31781    -3.99404
   220  H   1.0    0.10    1.07    1.44    37.08661    27.89158     0.03100
   221  H   1.0    0.05    1.04    1.43    34.37084    24.28503     5.73804
   222  H   1.0    0.09    1.09    1.44    30.80874    45.53083     8.80286
   223  H   1.0    0.06    1.04    1.43    24.28503    34.37084    -5.73804
   224  H   1.0    0.09    1.08    1.44    15.00012    38.85982   -13.25751
   225  H   1.0    0.06    1.05    1.44    15.01950    45.08815   -15.60611
   226  H   1.0    0.09    1.07    1.44    37.08661    58.09095    -0.03100
   227  H   1.0    0.05    1.04    1.43    34.37084    61.69750    -5.73804

  Z AO/shell   Hii/eV     exponent
  1     Wed Apr 25 08:07:45 CEST 2018   EN: 2.200 GM2: 0.406  GM3: 0.0800  RAES: 1.40
     1s    -10.707211    1.230000
  6     Wed Apr 25 08:07:45 CEST 2018   EN: 2.550 GM2: 0.538  GM3: 0.1500  RAES: 3.00
     2s    -13.970922    2.096432
     2p    -10.063292    1.800000
  7     Wed Apr 25 08:07:45 CEST 2018   EN: 3.040 GM2: 0.461  GM3:-0.0640  RAES: 1.90
     2s    -16.686243    2.339881
     2p    -12.523956    2.014332
  8     Wed Apr 25 08:07:45 CEST 2018   EN: 3.440 GM2: 0.452  GM3:-0.0517  RAES: 1.80
     2s    -20.229985    2.439742
     2p    -15.503117    2.137023
 no old-style atom pair restraining (fixing) potential

molecular fragmentation (1/2 indicates fragments):
111111111111111111111111111111111111111111111111111112222222222222222222
222222222222222222222222222222222222222222222222222222222222222222222222
222222222222222222222222222222222222222222222222222222222222222222222112
22222222222
# atoms in fragment 1/2:    55   172
 fragment masses (1/2) :      363.46     1148.31
CMA distance (Bohr)    :   4.789
constraining FC (au)   :  0.0500
           ------------------------------------------------- 
          |        Self-Consistent Charge Iterations        |
           ------------------------------------------------- 

 Ncao       : 542
 Nao        : 542
 Nshell     : 332
 Nel        : 606
 T(el)      :   500.0
 intcut     :    35.0
 scfconv/Eh :  0.100E-06
   qconv/e  :  0.100E-04
 intneglect :  0.100E-08
 broydamp   :      0.400
 iter      E             dE          RMSdq      gap      omega  full diag
   1   -349.3817871 -0.349382E+03  0.485E+00    3.25       0.0  T
   2   -350.1666046 -0.784817E+00  0.233E+00    1.91       1.0  T
   3   -350.2140425 -0.474379E-01  0.125E+00    2.08       1.0  T
   4   -350.2808163 -0.667739E-01  0.283E-01    1.62       1.0  T
   5   -350.2836531 -0.283680E-02  0.125E-01    1.73       1.0  T
   6   -350.2847806 -0.112744E-02  0.446E-02    1.75       1.0  T
   7   -350.2849098 -0.129197E-03  0.212E-02    1.73       1.0  T
   8   -350.2849281 -0.183505E-04  0.994E-03    1.73       1.0  T
   9   -350.2849325 -0.439849E-05  0.361E-03    1.73       1.8  T
  10   -350.2849334 -0.924427E-06  0.149E-03    1.73       4.4  T
  11   -350.2849335 -0.737948E-07  0.699E-04    1.73       9.5  T
  12   -350.2849335 -0.212180E-07  0.324E-04    1.73      20.5  T
  13   -350.2849335 -0.635038E-08  0.129E-04    1.73      51.4  T
  14   -350.2849336 -0.683144E-09  0.732E-05    1.73      90.7  T
  15   -350.2849336 -0.288480E-09  0.300E-05    1.73     221.1  T
speedup  5.97
cpu  time for SCC   15.02 s
wall time for SCC    2.52 s

   *** convergence criteria satisfied after 15 iterations ***

          eigenvalues
 #    :         291        292        293        294        295        296        297        298
 occ. :        2.000      2.000      2.000      2.000      2.000      2.000      2.000      2.000
 eps  :       -10.834    -10.828    -10.802    -10.666    -10.619    -10.300    -10.146    -10.097
 #    :         299        300        301        302        303        304        305        306
 occ. :        2.000      2.000      2.000      2.000      2.000      0.000      0.000      0.000
 eps  :        -9.894     -9.837     -9.811     -9.751     -9.725     -7.995     -7.951     -7.947
 #    :         307        308        309        310        311        312        313        314
 occ. :        0.000      0.000      0.000      0.000      0.000      0.000      0.000      0.000
 eps  :        -7.860     -7.837     -7.735     -7.687     -6.353     -6.186     -6.170     -6.108


   #   Z            q   n(s)   n(p)   n(d)      C6AA      α(0)
   1   7 N     -0.382  1.313  4.068  0.000    29.874     8.118
   2   6 C      0.035  1.060  2.904  0.000    19.997     6.370
   3   6 C      0.260  1.052  2.688  0.000    22.624     7.789
   4   8 O     -0.509  1.752  4.757  0.000    23.979     6.565
   5   6 C     -0.064  1.049  3.015  0.000    21.711     6.631
   6   6 C      0.013  1.079  2.908  0.000    27.730     8.638
   7   6 C     -0.043  1.078  2.965  0.000    29.059     8.840
   8   6 C     -0.043  1.083  2.959  0.000    29.057     8.840
   9   6 C     -0.034  1.079  2.955  0.000    28.849     8.808
  10   6 C     -0.033  1.080  2.953  0.000    28.820     8.804
  11   6 C     -0.035  1.078  2.958  0.000    28.879     8.813
  12   1 H      0.155  0.845  0.000  0.000     1.365     1.830
  13   1 H      0.056  0.944  0.000  0.000     2.247     2.344
  14   1 H      0.034  0.966  0.000  0.000     2.536     2.490
  15   1 H      0.039  0.961  0.000  0.000     2.460     2.453
  16   1 H      0.031  0.969  0.000  0.000     2.569     2.506
  17   1 H      0.040  0.960  0.000  0.000     2.445     2.445
  18   1 H      0.032  0.968  0.000  0.000     2.554     2.499
  19   1 H      0.039  0.961  0.000  0.000     2.461     2.453
  20   1 H      0.034  0.966  0.000  0.000     2.527     2.486
  21   7 N     -0.175  1.234  3.940  0.000    24.782     7.394
  22   6 C      0.016  1.052  2.932  0.000    20.281     6.409
  23   6 C      0.267  1.042  2.691  0.000    22.493     7.767
  24   8 O     -0.501  1.738  4.763  0.000    23.818     6.543
  25   1 H      0.221  0.779  0.000  0.000     1.003     1.569
  26   1 H      0.084  0.916  0.000  0.000     1.935     2.176
  27   6 C      0.119  1.034  2.847  0.000    18.698     6.168
  28   8 O     -0.477  1.710  4.767  0.000    22.394     6.388
  29   6 C     -0.162  1.045  3.117  0.000    23.687     6.938
  30   1 H      0.035  0.965  0.000  0.000     2.518     2.481
  31   1 H      0.334  0.666  0.000  0.000     0.627     1.244
  32   1 H      0.085  0.915  0.000  0.000     1.927     2.171
  33   1 H      0.072  0.928  0.000  0.000     2.058     2.244
  34   1 H      0.067  0.933  0.000  0.000     2.121     2.277
  35   7 N     -0.154  1.246  3.908  0.000    24.326     7.325
  36   6 C      0.022  1.053  2.926  0.000    20.217     6.403
  37   6 C      0.212  1.074  2.714  0.000    23.513     7.942
  38   8 O     -0.355  1.735  4.620  0.000    20.799     6.115
  39   6 C     -0.063  1.059  3.004  0.000    21.691     6.628
  40   6 C     -0.009  1.052  2.958  0.000    20.706     6.472
  41   6 C     -0.120  1.039  3.081  0.000    22.829     6.810
  42   6 C     -0.119  1.046  3.073  0.000    22.831     6.812
  43   1 H      0.230  0.770  0.000  0.000     0.966     1.540
  44   1 H      0.094  0.906  0.000  0.000     1.837     2.120
  45   1 H      0.062  0.938  0.000  0.000     2.173     2.305
  46   1 H      0.053  0.947  0.000  0.000     2.280     2.361
  47   1 H      0.030  0.970  0.000  0.000     2.580     2.512
  48   1 H      0.043  0.957  0.000  0.000     2.411     2.428
  49   1 H      0.044  0.956  0.000  0.000     2.397     2.421
  50   1 H      0.047  0.953  0.000  0.000     2.355     2.400
  51   1 H      0.047  0.953  0.000  0.000     2.352     2.398
  52   1 H      0.047  0.953  0.000  0.000     2.363     2.404
  53   1 H      0.039  0.961  0.000  0.000     2.466     2.455
  54   8 O     -0.615  1.753  4.862  0.000    25.539     6.821
  55   1 H      0.318  0.682  0.000  0.000     0.669     1.285
  56   1 H      0.300  0.700  0.000  0.000     0.722     1.335
  57   8 O     -0.624  1.751  4.872  0.000    25.762     6.850
  58   1 H      0.308  0.692  0.000  0.000     0.697     1.311
  59   1 H      0.311  0.689  0.000  0.000     0.689     1.304
  60   8 O     -0.634  1.764  4.870  0.000    26.007     6.883
  61   1 H      0.331  0.669  0.000  0.000     0.636     1.252
  62   1 H      0.306  0.694  0.000  0.000     0.703     1.317
  63   8 O     -0.626  1.762  4.864  0.000    25.825     6.859
  64   1 H      0.324  0.676  0.000  0.000     0.654     1.270
  65   1 H      0.306  0.694  0.000  0.000     0.704     1.318
  66   8 O     -0.628  1.755  4.873  0.000    25.865     6.864
  67   1 H      0.325  0.675  0.000  0.000     0.650     1.267
  68   1 H      0.322  0.678  0.000  0.000     0.659     1.275
  69   8 O     -0.617  1.757  4.860  0.000    25.602     6.829
  70   1 H      0.336  0.664  0.000  0.000     0.623     1.240
  71   1 H      0.299  0.701  0.000  0.000     0.722     1.335
  72   8 O     -0.615  1.751  4.864  0.000    25.544     6.821
  73   1 H      0.316  0.684  0.000  0.000     0.674     1.289
  74   1 H      0.315  0.685  0.000  0.000     0.679     1.294
  75   7 N     -0.396  1.320  4.075  0.000    30.250     8.169
  76   6 C      0.043  1.056  2.901  0.000    19.866     6.348
  77   6 C      0.197  1.090  2.713  0.000    23.801     7.990
  78   8 O     -0.371  1.757  4.614  0.000    21.102     6.159
  79   1 H      0.183  0.817  0.000  0.000     1.199     1.715
  80   1 H      0.047  0.953  0.000  0.000     2.351     2.398
  81   6 C     -0.073  1.056  3.017  0.000    21.884     6.658
  82   6 C      0.006  1.074  2.921  0.000    27.893     8.663
  83   6 C     -0.049  1.088  2.961  0.000    29.228     8.866
  84   6 C     -0.044  1.080  2.963  0.000    29.081     8.844
  85   6 C     -0.061  1.072  2.989  0.000    29.516     8.909
  86   6 C     -0.076  1.076  3.000  0.000    29.895     8.966
  87   6 C      0.141  1.047  2.812  0.000    24.921     8.182
  88   8 O     -0.450  1.725  4.724  0.000    21.834     6.308
  89   1 H      0.072  0.928  0.000  0.000     2.059     2.244
  90   1 H      0.042  0.958  0.000  0.000     2.418     2.432
  91   1 H      0.082  0.918  0.000  0.000     1.957     2.187
  92   1 H      0.031  0.969  0.000  0.000     2.570     2.507
  93   1 H      0.043  0.957  0.000  0.000     2.411     2.428
  94   1 H      0.032  0.968  0.000  0.000     2.558     2.501
  95   1 H      0.342  0.658  0.000  0.000     0.606     1.223
  96   7 N     -0.392  1.312  4.080  0.000    30.141     8.154
  97   6 C      0.041  1.044  2.914  0.000    19.877     6.347
  98   6 C      0.195  1.089  2.716  0.000    23.846     7.998
  99   8 O     -0.378  1.758  4.619  0.000    21.242     6.179
 100   1 H      0.172  0.828  0.000  0.000     1.258     1.757
 101   1 H      0.059  0.941  0.000  0.000     2.212     2.326
 102   6 C      0.125  1.038  2.837  0.000    18.611     6.153
 103   8 O     -0.488  1.719  4.768  0.000    22.624     6.421
 104   6 C     -0.146  1.042  3.104  0.000    23.363     6.890
 105   1 H      0.035  0.965  0.000  0.000     2.522     2.484
 106   1 H      0.337  0.663  0.000  0.000     0.621     1.237
 107   1 H      0.080  0.920  0.000  0.000     1.974     2.197
 108   1 H      0.057  0.943  0.000  0.000     2.239     2.340
 109   1 H      0.060  0.940  0.000  0.000     2.195     2.317
 110   7 N     -0.390  1.321  4.069  0.000    30.099     8.148
 111   6 C      0.036  1.060  2.904  0.000    19.982     6.366
 112   6 C      0.200  1.090  2.710  0.000    23.740     7.979
 113   8 O     -0.360  1.760  4.599  0.000    20.895     6.129
 114   6 C     -0.050  1.047  3.003  0.000    21.462     6.594
 115   6 C     -0.104  1.059  3.044  0.000    22.463     6.745
 116   6 C      0.294  1.029  2.676  0.000    22.009     7.682
 117   8 O     -0.510  1.737  4.774  0.000    24.007     6.569
 118   7 N     -0.281  1.267  4.014  0.000    27.261     7.754
 119   1 H      0.174  0.826  0.000  0.000     1.247     1.750
 120   1 H      0.050  0.950  0.000  0.000     2.316     2.380
 121   1 H      0.046  0.954  0.000  0.000     2.369     2.407
 122   1 H      0.054  0.946  0.000  0.000     2.266     2.354
 123   1 H      0.056  0.944  0.000  0.000     2.250     2.346
 124   1 H      0.059  0.941  0.000  0.000     2.215     2.327
 125   1 H      0.221  0.779  0.000  0.000     1.007     1.572
 126   1 H      0.233  0.767  0.000  0.000     0.954     1.530
 127   7 N     -0.398  1.311  4.087  0.000    30.313     8.177
 128   6 C      0.031  1.049  2.920  0.000    20.044     6.373
 129   6 C      0.272  1.043  2.685  0.000    22.412     7.753
 130   8 O     -0.512  1.747  4.765  0.000    24.051     6.575
 131   1 H      0.165  0.835  0.000  0.000     1.302     1.788
 132   1 H      0.047  0.953  0.000  0.000     2.363     2.404
 133   6 C      0.118  1.037  2.844  0.000    18.707     6.169
 134   8 O     -0.485  1.711  4.774  0.000    22.573     6.414
 135   6 C     -0.140  1.042  3.098  0.000    23.245     6.873
 136   1 H      0.021  0.979  0.000  0.000     2.726     2.582
 137   1 H      0.331  0.669  0.000  0.000     0.635     1.251
 138   1 H      0.073  0.927  0.000  0.000     2.050     2.239
 139   1 H      0.049  0.951  0.000  0.000     2.332     2.388
 140   1 H      0.056  0.944  0.000  0.000     2.248     2.345
 141   7 N     -0.164  1.248  3.916  0.000    24.541     7.358
 142   6 C      0.018  1.055  2.927  0.000    20.283     6.412
 143   6 C      0.278  1.038  2.684  0.000    22.292     7.732
 144   8 O     -0.479  1.720  4.759  0.000    23.321     6.475
 145   6 C     -0.068  1.058  3.010  0.000    21.788     6.643
 146   6 C     -0.006  1.050  2.956  0.000    20.651     6.463
 147   6 C     -0.117  1.039  3.078  0.000    22.788     6.804
 148   6 C     -0.120  1.047  3.073  0.000    22.839     6.813
 149   1 H      0.224  0.776  0.000  0.000     0.989     1.558
 150   1 H      0.078  0.922  0.000  0.000     1.995     2.209
 151   1 H      0.061  0.939  0.000  0.000     2.192     2.315
 152   1 H      0.050  0.950  0.000  0.000     2.317     2.380
 153   1 H      0.020  0.980  0.000  0.000     2.729     2.583
 154   1 H      0.042  0.958  0.000  0.000     2.417     2.431
 155   1 H      0.036  0.964  0.000  0.000     2.505     2.475
 156   1 H      0.048  0.952  0.000  0.000     2.344     2.394
 157   1 H      0.046  0.954  0.000  0.000     2.371     2.408
 158   1 H      0.049  0.951  0.000  0.000     2.334     2.389
 159   1 H      0.039  0.961  0.000  0.000     2.458     2.452
 160   7 N     -0.178  1.248  3.930  0.000    24.861     7.405
 161   6 C      0.028  1.063  2.909  0.000    20.112     6.386
 162   6 C      0.206  1.088  2.706  0.000    23.633     7.961
 163   8 O     -0.353  1.755  4.598  0.000    20.762     6.109
 164   6 C     -0.051  1.046  3.005  0.000    21.474     6.596
 165   6 C     -0.102  1.057  3.046  0.000    22.438     6.742
 166   6 C      0.295  1.028  2.677  0.000    21.996     7.679
 167   8 O     -0.512  1.740  4.772  0.000    24.043     6.574
 168   7 N     -0.284  1.268  4.016  0.000    27.340     7.766
 169   1 H      0.209  0.791  0.000  0.000     1.063     1.615
 170   1 H      0.092  0.908  0.000  0.000     1.857     2.131
 171   1 H      0.059  0.941  0.000  0.000     2.213     2.326
 172   1 H      0.064  0.936  0.000  0.000     2.150     2.293
 173   1 H      0.055  0.945  0.000  0.000     2.254     2.348
 174   1 H      0.070  0.930  0.000  0.000     2.088     2.260
 175   1 H      0.234  0.766  0.000  0.000     0.949     1.526
 176   1 H      0.229  0.771  0.000  0.000     0.970     1.543
 177   7 N     -0.387  1.309  4.078  0.000    30.016     8.137
 178   6 C      0.048  1.048  2.904  0.000    19.785     6.337
 179   6 C      0.204  1.088  2.709  0.000    23.674     7.969
 180   8 O     -0.396  1.770  4.626  0.000    21.594     6.230
 181   6 C     -0.073  1.066  3.007  0.000    21.903     6.663
 182   6 C      0.004  1.088  2.909  0.000    27.943     8.670
 183   6 C     -0.035  1.078  2.957  0.000    28.868     8.812
 184   6 C     -0.042  1.085  2.956  0.000    29.039     8.837
 185   6 C     -0.032  1.078  2.955  0.000    28.803     8.800
 186   6 C     -0.036  1.085  2.951  0.000    28.889     8.814
 187   6 C     -0.031  1.077  2.954  0.000    28.771     8.797
 188   1 H      0.175  0.825  0.000  0.000     1.243     1.746
 189   1 H      0.047  0.953  0.000  0.000     2.356     2.400
 190   1 H      0.057  0.943  0.000  0.000     2.234     2.337
 191   1 H      0.058  0.942  0.000  0.000     2.217     2.328
 192   1 H      0.018  0.982  0.000  0.000     2.771     2.603
 193   1 H      0.035  0.965  0.000  0.000     2.519     2.482
 194   1 H      0.046  0.954  0.000  0.000     2.376     2.411
 195   1 H      0.041  0.959  0.000  0.000     2.435     2.440
 196   1 H      0.035  0.965  0.000  0.000     2.509     2.477
 197   7 N     -0.391  1.326  4.065  0.000    30.120     8.151
 198   6 C      0.034  1.061  2.905  0.000    20.013     6.371
 199   6 C      0.201  1.090  2.709  0.000    23.729     7.977
 200   8 O     -0.360  1.759  4.600  0.000    20.889     6.128
 201   6 C     -0.054  1.048  3.006  0.000    21.537     6.605
 202   6 C     -0.101  1.058  3.043  0.000    22.410     6.737
 203   6 C      0.292  1.029  2.679  0.000    22.040     7.687
 204   8 O     -0.520  1.743  4.777  0.000    24.233     6.600
 205   7 N     -0.288  1.270  4.018  0.000    27.430     7.778
 206   1 H      0.161  0.839  0.000  0.000     1.329     1.806
 207   1 H      0.054  0.946  0.000  0.000     2.272     2.357
 208   1 H      0.050  0.950  0.000  0.000     2.318     2.381
 209   1 H      0.053  0.947  0.000  0.000     2.284     2.363
 210   1 H      0.048  0.952  0.000  0.000     2.346     2.395
 211   1 H      0.059  0.941  0.000  0.000     2.210     2.325
 212   1 H      0.230  0.770  0.000  0.000     0.966     1.539
 213   1 H      0.227  0.773  0.000  0.000     0.980     1.551
 214   1 H      0.178  0.822  0.000  0.000     1.225     1.734
 215   1 H      0.076  0.924  0.000  0.000     2.023     2.224
 216   1 H      0.177  0.823  0.000  0.000     1.228     1.736
 217   1 H      0.068  0.932  0.000  0.000     2.106     2.269
 218   1 H      0.184  0.816  0.000  0.000     1.190     1.709
 219   1 H      0.069  0.931  0.000  0.000     2.097     2.264
 220   1 H      0.179  0.821  0.000  0.000     1.219     1.730
 221   1 H      0.074  0.926  0.000  0.000     2.037     2.232
 222   1 H      0.181  0.819  0.000  0.000     1.206     1.720
 223   1 H      0.080  0.920  0.000  0.000     1.975     2.198
 224   1 H      0.189  0.811  0.000  0.000     1.164     1.690
 225   1 H      0.073  0.927  0.000  0.000     2.054     2.241
 226   1 H      0.192  0.808  0.000  0.000     1.148     1.678
 227   1 H      0.075  0.925  0.000  0.000     2.031     2.228

 Mol. C6AA /au·bohr⁶  :     454184.222985
 Mol. C8AA /au·bohr⁸  :    9999828.864248
 Mol. α(0) /au        :       1015.072307

 
 Wiberg/Mayer (AO) data. WBOs > 0.1 written file <wbo>
 largest (>0.05) Wiberg bond orders for each atom
           total WBO             WBO to atom ...
     1  N   2.991    C    2 1.018    H   12 0.956    H  214 0.949
     2  C   3.986    N    1 1.018    H   13 0.957    C    5 0.952    C    3 0.952
     3  C   3.944    O    4 1.609    N   21 1.305    C    2 0.952
     4  O   1.924    C    3 1.609    N   21 0.188
     5  C   3.995    C    6 1.017    H   14 0.968    H   15 0.966    C    2 0.952
     6  C   3.989    C    8 1.423    C    7 1.392    C    5 1.017    C   11 0.108
     7  C   3.991    C    9 1.460    C    6 1.392    H   16 0.967    C   10 0.108
     8  C   3.990    C   10 1.429    C    6 1.423    H   17 0.969    C    9 0.113
     9  C   3.992    C    7 1.460    C   11 1.421    H   18 0.971    C    8 0.113
    10  C   3.992    C   11 1.457    C    8 1.429    H   19 0.970    C    7 0.108
    11  C   3.992    C   10 1.457    C    9 1.421    H   20 0.971    C    6 0.108
    12  H   0.976    N    1 0.956
    13  H   0.997    C    2 0.957
    14  H   0.999    C    5 0.968
    15  H   0.998    C    5 0.966
    16  H   0.999    C    7 0.967
    17  H   0.998    C    8 0.969
    18  H   0.999    C    9 0.971
    19  H   0.998    C   10 0.970
    20  H   0.998    C   11 0.971
    21  N   3.471    C    3 1.305    C   22 0.993    H   25 0.898    O    4 0.188
    22  C   3.964    N   21 0.993    C   27 0.950    H   26 0.940    C   23 0.935
    23  C   3.949    O   24 1.554    N   35 1.367    C   22 0.935
    24  O   1.932    C   23 1.554    N   35 0.194
    25  H   0.951    N   21 0.898
    26  H   0.993    C   22 0.940
    27  C   3.954    C   29 1.003    O   28 0.991    H   30 0.952    C   22 0.950
    28  O   1.946    C   27 0.991    H   31 0.863
    29  C   3.984    C   27 1.003    H   34 0.976    H   32 0.974    H   33 0.969
    30  H   0.998    C   27 0.952
    31  H   0.888    O   28 0.863
    32  H   0.993    C   29 0.974
    33  H   0.995    C   29 0.969
    34  H   0.995    C   29 0.976
    35  N   3.517    C   23 1.367    C   36 0.966    H   43 0.890    O   24 0.194
    36  C   3.962    C   37 0.997    N   35 0.966    H   44 0.948    C   39 0.939    O   38 0.054
    37  C   3.901    O   38 1.880    C   36 0.997    H  215 0.950
    38  O   2.065    C   37 1.880    C   36 0.054
    39  C   3.984    C   40 1.002    H   46 0.971    H   45 0.967    C   36 0.939
    40  C   3.995    C   41 1.012    C   39 1.002    C   42 0.998    H   47 0.966
    41  C   3.994    C   40 1.012    H   48 0.985    H   50 0.982    H   49 0.979
    42  C   3.993    C   40 0.998    H   53 0.988    H   51 0.987    H   52 0.986
    43  H   0.947    N   35 0.890
    44  H   0.991    C   36 0.948
    45  H   0.996    C   39 0.967
    46  H   0.997    C   39 0.971
    47  H   0.999    C   40 0.966
    48  H   0.998    C   41 0.985
    49  H   0.998    C   41 0.979
    50  H   0.998    C   41 0.982
    51  H   0.997    C   42 0.987
    52  H   0.998    C   42 0.986
    53  H   0.998    C   42 0.988
    54  O   1.817    H   56 0.908    H   55 0.895
    55  H   0.899    O   54 0.895
    56  H   0.910    O   54 0.908
    57  O   1.812    H   58 0.895    H   59 0.885
    58  H   0.905    O   57 0.895
    59  H   0.903    O   57 0.885
    60  O   1.804    H   62 0.904    H   61 0.889
    61  H   0.891    O   60 0.889
    62  H   0.906    O   60 0.904
    63  O   1.810    H   65 0.904    H   64 0.892
    64  H   0.895    O   63 0.892
    65  H   0.907    O   63 0.904
    66  O   1.828    H   68 0.895    H   67 0.892
    67  H   0.894    O   66 0.892
    68  H   0.896    O   66 0.895
    69  O   1.834    H   71 0.907    H   70 0.886
    70  H   0.887    O   69 0.886
    71  H   0.910    O   69 0.907
    72  O   1.834    H   73 0.895    H   74 0.894
    73  H   0.900    O   72 0.895
    74  H   0.901    O   72 0.894
    75  N   3.000    C   76 1.024    H  216 0.940    H   79 0.934
    76  C   3.987    N   75 1.024    C   77 0.988    H   80 0.956    C   81 0.927    O   78 0.059
    77  C   3.898    O   78 1.887    C   76 0.988    H  217 0.957
    78  O   2.031    C   77 1.887    C   76 0.059
    79  H   0.967    N   75 0.934
    80  H   0.998    C   76 0.956
    81  C   3.992    C   82 1.015    H   90 0.973    H   89 0.963    C   76 0.927
    82  C   3.989    C   84 1.420    C   83 1.378    C   81 1.015    C   87 0.094
    83  C   3.986    C   85 1.456    C   82 1.378    H   91 0.951    C   86 0.107
    84  C   3.990    C   86 1.443    C   82 1.420    H   92 0.968    C   85 0.102
    85  C   3.988    C   83 1.456    C   87 1.368    H   93 0.966    C   84 0.102
    86  C   3.986    C   84 1.443    C   87 1.375    H   94 0.967    C   83 0.107    O   88 0.057
    87  C   3.932    C   86 1.375    C   85 1.368    O   88 1.057    C   82 0.094
    88  O   2.070    C   87 1.057    H   95 0.862    C   86 0.057
    89  H   0.994    C   81 0.963
    90  H   0.998    C   81 0.973
    91  H   0.993    C   83 0.951
    92  H   0.999    C   84 0.968
    93  H   0.998    C   85 0.966
    94  H   0.999    C   86 0.967
    95  H   0.883    O   88 0.862
    96  N   2.994    C   97 1.020    H  218 0.949    H  100 0.942
    97  C   3.988    N   96 1.020    C   98 1.000    H  101 0.948    C  102 0.928    O   99 0.056
    98  C   3.902    O   99 1.845    C   97 1.000    H  219 0.959
    99  O   2.037    C   98 1.845    C   97 0.056
   100  H   0.970    N   96 0.942
   101  H   0.997    C   97 0.948
   102  C   3.956    C  104 1.006    O  103 0.992    H  105 0.950    C   97 0.928
   103  O   1.939    C  102 0.992    H  106 0.868
   104  C   3.988    C  102 1.006    H  109 0.977    H  108 0.974    H  107 0.973
   105  H   0.999    C  102 0.950
   106  H   0.887    O  103 0.868
   107  H   0.994    C  104 0.973
   108  H   0.997    C  104 0.974
   109  H   0.996    C  104 0.977
   110  N   2.991    C  111 1.008    H  220 0.955    H  119 0.941
   111  C   3.987    N  110 1.008    C  114 0.971    H  120 0.966    C  112 0.962    O  113 0.057
   112  C   3.891    O  113 1.920    C  111 0.962    H  221 0.954
   113  O   2.050    C  112 1.920    C  111 0.057
   114  C   3.994    C  115 0.999    H  122 0.971    C  111 0.971    H  121 0.971
   115  C   3.994    C  114 0.999    H  124 0.972    H  123 0.961    C  116 0.952    O  117 0.056
   116  C   3.945    O  117 1.620    N  118 1.340    C  115 0.952
   117  O   1.945    C  116 1.620    N  118 0.200    C  115 0.056
   118  N   3.413    C  116 1.340    H  125 0.928    H  126 0.888    O  117 0.200
   119  H   0.970    N  110 0.941
   120  H   0.997    C  111 0.966
   121  H   0.998    C  114 0.971
   122  H   0.997    C  114 0.971
   123  H   0.997    C  115 0.961
   124  H   0.996    C  115 0.972
   125  H   0.951    N  118 0.928
   126  H   0.945    N  118 0.888
   127  N   2.988    C  128 1.021    H  222 0.950    H  131 0.944
   128  C   3.986    N  127 1.021    C  133 0.955    H  132 0.948    C  129 0.946
   129  C   3.945    O  130 1.567    N  141 1.352    C  128 0.946
   130  O   1.921    C  129 1.567    N  141 0.191
   131  H   0.973    N  127 0.944
   132  H   0.998    C  128 0.948
   133  C   3.958    C  135 1.005    O  134 0.986    C  128 0.955    H  136 0.953
   134  O   1.939    C  133 0.986    H  137 0.865
   135  C   3.990    C  133 1.005    H  140 0.978    H  138 0.976    H  139 0.975
   136  H   0.999    C  133 0.953
   137  H   0.890    O  134 0.865
   138  H   0.995    C  135 0.976
   139  H   0.997    C  135 0.975
   140  H   0.997    C  135 0.978
   141  N   3.502    C  129 1.352    C  142 0.970    H  149 0.893    O  130 0.191
   142  C   3.965    N  141 0.970    C  143 0.963    C  145 0.957    H  150 0.949
   143  C   3.950    O  144 1.618    N  160 1.288    C  142 0.963
   144  O   1.967    C  143 1.618    N  160 0.195
   145  C   3.988    C  146 1.003    H  152 0.972    H  151 0.970    C  142 0.957
   146  C   3.996    C  147 1.013    C  145 1.003    C  148 0.998    H  153 0.968
   147  C   3.995    C  146 1.013    H  154 0.985    H  156 0.984    H  155 0.979
   148  C   3.993    C  146 0.998    H  159 0.988    H  157 0.987    H  158 0.986
   149  H   0.950    N  141 0.893
   150  H   0.994    C  142 0.949
   151  H   0.996    C  145 0.970
   152  H   0.997    C  145 0.972
   153  H   1.000    C  146 0.968
   154  H   0.998    C  147 0.985
   155  H   0.999    C  147 0.979
   156  H   0.998    C  147 0.984
   157  H   0.997    C  148 0.987
   158  H   0.997    C  148 0.986
   159  H   0.998    C  148 0.988
   160  N   3.470    C  143 1.288    C  161 0.973    H  169 0.910    O  144 0.195
   161  C   3.961    C  164 0.975    N  160 0.973    C  162 0.955    H  170 0.950    O  163 0.056
   162  C   3.893    O  163 1.921    C  161 0.955    H  223 0.953
   163  O   2.054    C  162 1.921    C  161 0.056
   164  C   3.989    C  165 1.000    C  161 0.975    H  172 0.970    H  171 0.969
   165  C   3.991    C  164 1.000    H  174 0.971    H  173 0.961    C  166 0.949    O  167 0.056
   166  C   3.948    O  167 1.622    N  168 1.348    C  165 0.949
   167  O   1.944    C  166 1.622    N  168 0.204    C  165 0.056
   168  N   3.416    C  166 1.348    H  175 0.900    H  176 0.893    O  167 0.204
   169  H   0.956    N  160 0.910
   170  H   0.991    C  161 0.950
   171  H   0.996    C  164 0.969
   172  H   0.996    C  164 0.970
   173  H   0.997    C  165 0.961
   174  H   0.995    C  165 0.971
   175  H   0.945    N  168 0.900
   176  H   0.947    N  168 0.893
   177  N   3.003    C  178 1.019    H  224 0.952    H  188 0.949
   178  C   3.986    N  177 1.019    C  179 0.995    H  189 0.961    C  181 0.931
   179  C   3.892    O  180 1.875    C  178 0.995    H  225 0.955
   180  O   2.009    C  179 1.875
   181  C   3.990    C  182 0.999    H  191 0.974    H  190 0.965    C  178 0.931
   182  C   3.986    C  184 1.426    C  183 1.411    C  181 0.999    C  187 0.107
   183  C   3.993    C  185 1.444    C  182 1.411    H  192 0.970    C  186 0.115
   184  C   3.991    C  186 1.431    C  182 1.426    H  193 0.969    C  185 0.111
   185  C   3.991    C  183 1.444    C  187 1.437    H  194 0.966    C  184 0.111
   186  C   3.991    C  187 1.445    C  184 1.431    H  195 0.967    C  183 0.115
   187  C   3.992    C  186 1.445    C  185 1.437    H  196 0.970    C  182 0.107
   188  H   0.969    N  177 0.949
   189  H   0.998    C  178 0.961
   190  H   0.997    C  181 0.965
   191  H   0.996    C  181 0.974
   192  H   1.000    C  183 0.970
   193  H   0.999    C  184 0.969
   194  H   0.998    C  185 0.966
   195  H   0.998    C  186 0.967
   196  H   0.998    C  187 0.970
   197  N   2.991    C  198 1.006    H  206 0.959    H  226 0.952
   198  C   3.986    N  197 1.006    C  201 0.972    H  207 0.965    C  199 0.962    O  200 0.057
   199  C   3.891    O  200 1.920    C  198 0.962    H  227 0.954
   200  O   2.050    C  199 1.920    C  198 0.057
   201  C   3.994    C  202 1.000    H  209 0.973    C  198 0.972    H  208 0.971
   202  C   3.994    C  201 1.000    H  211 0.972    H  210 0.962    C  203 0.949    O  204 0.057
   203  C   3.948    O  204 1.627    N  205 1.344    C  202 0.949
   204  O   1.933    C  203 1.627    N  205 0.204    C  202 0.057
   205  N   3.413    C  203 1.344    H  212 0.901    H  213 0.892    O  204 0.204
   206  H   0.974    N  197 0.959
   207  H   0.997    C  198 0.965
   208  H   0.997    C  201 0.971
   209  H   0.997    C  201 0.973
   210  H   0.998    C  202 0.962
   211  H   0.996    C  202 0.972
   212  H   0.947    N  205 0.901
   213  H   0.948    N  205 0.892
   214  H   0.968    N    1 0.949
   215  H   0.994    C   37 0.950
   216  H   0.968    N   75 0.940
   217  H   0.995    C   77 0.957
   218  H   0.966    N   96 0.949
   219  H   0.995    C   98 0.959
   220  H   0.968    N  110 0.955
   221  H   0.994    C  112 0.954
   222  H   0.966    N  127 0.950
   223  H   0.993    C  162 0.953
   224  H   0.964    N  177 0.952
   225  H   0.995    C  179 0.955
   226  H   0.963    N  197 0.952
   227  H   0.994    C  199 0.954
 
molecular dipole:
                 x           y           z       tot (Debye)
 q only:        7.193       3.641      -1.599
   full:        7.643       4.461      -1.313      22.740
molecular quadrupole (traceless):
                xx          xy          yy          xz          yz          zz
 q only:      364.357     640.654     -76.981     -88.373    -110.698    -287.376
  q+dip:      365.022     724.877     -39.683     -61.996     -97.100    -325.339
   full:      369.918     721.678     -42.030     -64.559     -95.382    -327.887
speedup  5.97
cpu  time for grad   15.83 s
wall time for grad    2.65 s

SCC energy    :    -350.2982018
rep           :       4.4716531
ES            :       0.9605956
AES           :      -0.0045331
AXC           :       0.1166028
disp          :      -0.2474207
XB            :       0.0000000
fix           :       0.0000000
Gborn         :       0.0000000
Gsasa         :       0.0000000
Ghb           :       0.0000000
Gshift        :       0.0000000
Gsolv         :      -0.1467105      -92.06
Etot ala COSMO:    -350.2982018
grad norm     :       0.6404041
total E       :    -345.8093811
atomizationE  :      61.1201492    38353.47
(atE without considering molecular charge,
 total energy contains solvation terms)
H-L gap (eV)  :          1.7306

------------------------------------------------------------------------
 * finished run on 2019/02/16 at 08:10:03.131     
------------------------------------------------------------------------
 total:
 * wall-time:     0 d,  0 h,  0 min,  2.928 sec
 *  cpu-time:     0 d,  0 h,  0 min, 16.970 sec
 * ratio c/w:     5.795 speedup
 SCF:
 * wall-time:     0 d,  0 h,  0 min,  2.763 sec
 *  cpu-time:     0 d,  0 h,  0 min, 16.291 sec
 * ratio c/w:     5.896 speedup

