      -----------------------------------------------------------      
     |                   =====================                   |     
     |                           x T B                           |     
     |                   =====================                   |     
     |                         S. Grimme                         |     
     |          Mulliken Center for Theoretical Chemistry        |     
     |                    University of Bonn                     |     
     |                 Version 6.0.1 (SAW181210)                 |     
      -----------------------------------------------------------      

   This program is distributed in the hope that it will be useful,
   but WITHOUT ANY WARRANTY; without even the implied warranty of
   MERCHANTABILITY or FITNESS FOR A PARTICULAR PURPOSE.
   
   FOR NON-COMMERCIAL, ACADEMIA USE ONLY.
   
   Cite this work as:
   S. Grimme, C. Bannwarth, P. Shushkov, J. Comput. Theory Chem., 2017,
   13, 1989-2009.
   C. Bannwarth, S. Ehlert and S. Grimme., ChemRxiv, 2018, preprint.
   http://doi.org/10.26434/chemrxiv.7246238.v1
   
   for sTDA-xTB:
   S. Grimme and C. Bannwarth, J. Chem. Phys., 2016, 145, 054103.
   
   in the mass-spec context:
   V. Asgeirsson, C. Bauer and S. Grimme, Chem. Sci., 2017, 8, 4879.
   
   if GBSA is used:
   P. Shushkov, F. März and S. Grimme, unpublished.
   
   for ANC optimizer:
   S. Grimme, unpublished.
   Rational Function algorithm used in ANCopt:
   F. Eckert, P. Pulay, H.-J. Werner, J. Comput. Chem., 1997, 18, 1473.
   
   with help from (in alphabetical order)
   C. Bannwarth, F. Bohle, G. Brandenburg, E. Caldeweyher, M. Checinski,
   S. Dohm, S. Ehlert, S. Ehrlich, F. März, H. Neugebauer, J. Pisarek,
   P. Pracht, P. Shushkov, and S. Spicher.
   
 * started run on 2019/02/16 at 08:10:09.026     
========================================================================
 # omp threads = 12
========================================================================
number of atoms            : 325
number of electrons        : 856
charge                     : 1
spin                       : .0
first test random number   : .5801

########################################################################
# WARNING! Please study the warnings concerning your input carefully
#  - Process number higher than OMP_NUM_THREADS, I hope you know what you are doing.
########################################################################

           ------------------------------------------------- 
          |                 G F N 2 - x T B                 |
          | Geometry, Frequencies, Noncovalent interactions |
          |            JCTC 2018 parametrisation            |
           ------------------------------------------------- 
 
      method parameters     
 k(s)        :  1.8500
 k(p)        :  2.2300
 k(d)        :  2.2300
 k(f)        :  2.0000
 kEN (H0ij)  : -2.0000
 D4 a1       :  0.5200
 D4 a2       :  5.0000
 D4 s6       :  1.0000
 D4 s8       :  2.7000
 D4 s9       :  5.0000
 alphaj      :  2.0000

 Solvent             : h2o
 Using internal parameter file: .param_gbsa2_h2o
 Gsolv ref. state (COSMO-RS): gsolv [1 M gas/solution]
 temperature (mdtemp)       :    298.150000000000     
 dielectric constant        :    80.2000000000000     
 rho                        :    1.00000000000000     
 mass                       :    18.0000000000000     
 surface tension            :    15.5689454083859     
 probe radius               :   0.975313790000000     
 vdW radii scaling          :    1.00000000000000     
 Gshift (Eh)                :   1.857443126794793E-003
 c1                         :    1.55243817000000     
 soset                      :   0.130326360000000     
 HB correction              :  T

            Z     q(EN)     CN     RAES       Cart. coordinates
     1  N   5.0   -0.20    3.33    1.99    29.85008    41.82703    -8.51649
     2  C   4.0    0.04    4.53    4.57    29.81550    42.35633    -5.91945
     3  C   4.0    0.15    3.49    3.11    28.46056    44.84830    -5.48484
     4  O   6.0   -0.32    1.29    1.80    28.72342    46.68165    -6.94364
     5  H   1.0    0.10    1.03    1.43    30.54953    43.20232    -9.65788
     6  H   1.0    0.06    1.07    1.44    28.79125    40.83592    -4.95907
     7  C   4.0    0.06    4.34    4.27    32.46041    42.39272    -4.99329
     8  O   6.0   -0.25    2.19    1.86    32.23390    42.34892    -2.38609
     9  C   4.0   -0.06    4.16    3.93    33.83655    44.60024    -6.17929
    10  H   1.0    0.05    1.05    1.44    33.37553    40.60898    -5.55642
    11  H   1.0    0.13    1.04    1.43    32.70042    43.97212    -1.68485
    12  H   1.0    0.05    1.00    1.43    35.79696    44.60136    -5.56745
    13  H   1.0    0.05    1.01    1.43    33.80432    44.45984    -8.22106
    14  H   1.0    0.06    1.01    1.43    33.00310    46.37682    -5.59358
    15  N   5.0   -0.14    3.47    2.06    26.87106    44.79807    -3.59523
    16  C   4.0    0.03    4.45    4.46    25.44699    47.03118    -2.79129
    17  C   4.0    0.15    3.44    3.09    25.99985    47.76484    -0.14642
    18  O   6.0   -0.31    1.31    1.80    25.87528    46.26332     1.56432
    19  C   4.0   -0.04    4.41    4.39    22.58313    46.46172    -2.94021
    20  C   4.0   -0.02    4.20    4.01    20.95843    48.74167    -2.46642
    21  C   4.0   -0.07    4.17    3.93    21.49530    50.73018    -4.43398
    22  C   4.0   -0.08    4.11    3.83    18.13410    48.00011    -2.79307
    23  H   1.0    0.11    1.09    1.44    26.61793    43.20190    -2.56852
    24  H   1.0    0.06    1.07    1.44    25.95978    48.53209    -4.11160
    25  H   1.0    0.04    1.03    1.43    22.18174    45.70701    -4.81692
    26  H   1.0    0.05    1.03    1.43    22.18174    44.97867    -1.55777
    27  H   1.0    0.05    1.05    1.44    21.25846    49.48907    -0.56485
    28  H   1.0    0.05    1.00    1.43    20.23183    52.33389    -4.17517
    29  H   1.0    0.05    1.00    1.43    23.40493    51.47532    -4.31589
    30  H   1.0    0.04    1.00    1.43    21.18962    49.95848    -6.31334
    31  H   1.0    0.05    1.00    1.43    16.92400    49.62962    -2.51006
    32  H   1.0    0.04    1.00    1.43    17.84179    47.26805    -4.68797
    33  H   1.0    0.04    1.00    1.43    17.60525    46.54788    -1.43683
    34  N   5.0   -0.13    3.46    2.05    26.77711    50.13261     0.37903
    35  C   4.0    0.04    4.43    4.44    27.32027    51.18735     2.86750
    36  C   4.0    0.15    3.40    3.08    24.84794    52.21534     4.03810
    37  O   6.0   -0.29    1.28    1.80    23.62879    53.76233     2.83565
    38  C   4.0   -0.03    4.31    4.21    29.37148    53.17136     2.64255
    39  C   4.0   -0.03    4.28    4.17    30.12649    53.89782     5.28115
    40  C   4.0    0.16    3.24    3.04    32.49328    55.56319     5.14356
    41  O   6.0   -0.32    1.29    1.80    32.48441    57.54108     4.02600
    42  N   5.0   -0.19    3.21    1.96    34.47951    54.75421     6.37107
    43  H   1.0    0.10    1.08    1.44    26.88115    51.40187    -1.05914
    44  H   1.0    0.06    1.06    1.44    27.98562    49.61247     4.04166
    45  H   1.0    0.05    1.03    1.43    30.96060    52.37004     1.60355
    46  H   1.0    0.07    1.03    1.43    28.66171    54.81724     1.62356
    47  H   1.0    0.06    1.03    1.43    28.63346    55.01911     6.15464
    48  H   1.0    0.05    1.03    1.43    30.49634    52.24058     6.44463
    49  H   1.0    0.10    1.05    1.44    34.43616    53.20537     7.49902
    50  H   1.0    0.12    1.06    1.44    36.05136    55.85284     6.49528
    51  N   5.0   -0.13    3.50    2.08    24.34794    51.46106     6.35925
    52  C   4.0    0.04    4.41    4.40    21.92926    51.82772     7.62342
    53  C   4.0    0.08    3.25    3.04    22.60554    53.05125    10.16427
    54  O   6.0   -0.31    1.20    1.80    24.38111    52.16393    11.41142
    55  C   4.0   -0.02    4.31    4.22    20.53336    49.36061     8.03948
    56  C   4.0   -0.04    4.19    3.98    19.63581    48.31593     5.47811
    57  C   4.0   -0.07    4.12    3.85    18.13863    49.80901     9.67321
    58  C   4.0   -0.08    3.99    3.60    19.08404    45.44458     5.47947
    59  H   1.0    0.11    1.11    1.45    25.48587    50.14367     7.18060
    60  H   1.0    0.06    1.06    1.44    20.82625    53.10560     6.42984
    61  H   1.0    0.05    1.05    1.44    21.79699    48.01247     8.95579
    62  H   1.0    0.04    1.03    1.43    17.94997    49.33954     4.88042
    63  H   1.0    0.06    1.03    1.43    21.09493    48.64990     4.05427
    64  H   1.0    0.04    1.00    1.43    16.98960    48.11592     9.72017
    65  H   1.0    0.05    1.00    1.43    18.63233    50.29627    11.60779
    66  H   1.0    0.04    1.00    1.43    17.03114    51.33460     8.86541
    67  H   1.0    0.04    1.00    1.43    18.33822    44.87333     3.65853
    68  H   1.0    0.05    1.00    1.43    20.82358    44.42037     5.84348
    69  H   1.0    0.04    1.00    1.43    17.70789    44.95792     6.92230
    70  O   6.0   -0.26    1.92    1.82    23.24165    59.06915     3.81844
    71  H   1.0    0.15    0.98    1.43    23.24270    58.75151     2.03765
    72  H   1.0    0.14    0.96    1.43    21.63367    59.88658     4.20934
    73  O   6.0   -0.31    1.95    1.82    34.86810    50.13309     9.68605
    74  H   1.0    0.13    0.97    1.43    36.59649    49.69941    10.03830
    75  H   1.0    0.13    0.97    1.43    34.06680    48.64130     9.03479
    76  O   6.0   -0.28    1.93    1.82    29.36648    61.08426     1.46451
    77  H   1.0    0.16    1.00    1.43    30.32862    59.87563     2.43998
    78  H   1.0    0.16    1.01    1.43    30.46928    61.68401     0.14075
    79  O   6.0   -0.29    1.94    1.82    24.89827    56.61605    -1.46451
    80  H   1.0    0.15    1.00    1.43    26.10690    55.65391    -2.43998
    81  H   1.0    0.16    1.01    1.43    24.29852    55.51325    -0.14075
    82  O   6.0   -0.30    1.99    1.83    19.23461    57.18479    -3.37095
    83  H   1.0    0.17    1.03    1.43    18.86932    56.61457    -1.66175
    84  H   1.0    0.14    0.98    1.43    19.40137    58.97882    -3.20216
    85  O   6.0   -0.31    1.95    1.82    38.33135    49.29008     2.91656
    86  H   1.0    0.13    0.97    1.43    38.34270    47.58856     2.27445
    87  H   1.0    0.13    0.97    1.43    36.58662    49.76050     3.08194
    88  O   6.0   -0.30    1.93    1.82    39.50538    54.29153    11.86285
    89  H   1.0    0.13    0.97    1.43    37.95937    53.76888    12.66501
    90  H   1.0    0.14    0.98    1.43    38.98298    55.38755    10.49277
    91  N   5.0   -0.19    3.36    2.00    30.06210    53.95440    17.35437
    92  C   4.0    0.03    4.36    4.31    29.62042    53.24294    14.75987
    93  C   4.0    0.15    3.37    3.07    30.20239    50.41482    14.48529
    94  O   6.0   -0.28    1.21    1.80    31.90105    49.34549    15.67344
    95  H   1.0    0.10    1.03    1.43    31.89874    53.89201    17.90301
    96  H   1.0    0.06    1.06    1.44    27.61876    53.53507    14.34509
    97  C   4.0   -0.03    4.32    4.24    31.18974    55.02311    13.07509
    98  C   4.0   -0.01    3.65    3.20    30.75315    57.65152    14.02018
    99  C   4.0   -0.04    3.56    3.15    31.96771    58.54624    16.18374
   100  C   4.0   -0.03    3.48    3.11    29.14249    59.26045    12.75262
   101  C   4.0   -0.03    3.44    3.09    31.47254    60.92211    17.12357
   102  C   4.0   -0.04    3.44    3.09    28.74867    61.69989    13.58331
   103  C   4.0    0.08    3.46    3.10    29.85566    62.51369    15.82229
   104  O   6.0   -0.23    2.11    1.84    29.35396    64.85027    16.81112
   105  H   1.0    0.05    1.03    1.43    33.17885    54.51845    13.25126
   106  H   1.0    0.05    1.03    1.43    30.60961    54.79552    11.11627
   107  H   1.0    0.06    1.04    1.43    33.39460    57.42323    17.08495
   108  H   1.0    0.06    1.03    1.43    28.22524    58.61499    11.04813
   109  H   1.0    0.07    1.03    1.43    32.34833    61.58774    18.83274
   110  H   1.0    0.06    1.03    1.43    27.57029    62.96354    12.50256
   111  H   1.0    0.13    1.03    1.43    28.59452    65.91174    15.53112
   112  N   5.0   -0.13    3.51    2.08    28.50270    49.18833    13.01248
   113  C   4.0    0.04    4.39    4.37    28.75703    46.47564    12.50403
   114  C   4.0    0.14    3.43    3.09    28.72038    46.09616     9.63530
   115  O   6.0   -0.31    1.34    1.80    27.67011    47.70856     8.29565
   116  C   4.0   -0.03    4.37    4.33    26.46963    45.14461    13.63299
   117  C   4.0   -0.00    3.59    3.16    26.20581    45.48965    16.40098
   118  C   4.0   -0.03    3.46    3.10    24.81272    47.50095    17.37939
   119  C   4.0   -0.03    3.48    3.10    27.45641    43.84870    18.01887
   120  C   4.0   -0.03    3.39    3.08    24.76421    47.85246    19.95288
   121  C   4.0   -0.03    3.37    3.07    27.47889    44.30543    20.60829
   122  C   4.0   -0.03    3.38    3.07    26.12724    46.29911    21.56303
   123  H   1.0    0.12    1.10    1.44    27.11296    50.11740    12.07424
   124  H   1.0    0.06    1.05    1.44    30.52055    45.81766    13.35172
   125  H   1.0    0.05    1.04    1.43    24.79690    45.88896    12.66996
   126  H   1.0    0.05    1.03    1.43    26.58788    43.12836    13.18042
   127  H   1.0    0.06    1.03    1.43    23.82873    48.76688    16.12238
   128  H   1.0    0.06    1.03    1.43    28.51593    42.29512    17.22822
   129  H   1.0    0.06    1.03    1.43    23.72473    49.43085    20.71724
   130  H   1.0    0.06    1.03    1.43    28.55719    43.09205    21.84482
   131  H   1.0    0.06    1.03    1.43    26.19493    46.70087    23.56396
   132  N   5.0   -0.14    3.56    2.12    29.85008    44.15550     8.51649
   133  C   4.0    0.05    4.62    4.69    29.81550    43.62620     5.91945
   134  C   4.0    0.15    3.49    3.11    28.46056    41.13423     5.48484
   135  O   6.0   -0.30    1.24    1.80    28.72342    39.30088     6.94364
   136  H   1.0    0.08    1.08    1.44    30.54953    42.78021     9.65788
   137  H   1.0    0.07    1.08    1.44    28.79125    45.14662     4.95907
   138  C   4.0    0.06    4.33    4.25    32.46041    43.58981     4.99329
   139  O   6.0   -0.25    2.19    1.86    32.23390    43.63361     2.38609
   140  C   4.0   -0.06    4.16    3.93    33.83655    41.38229     6.17929
   141  H   1.0    0.05    1.05    1.44    33.37553    45.37355     5.55642
   142  H   1.0    0.13    1.04    1.43    32.70042    42.01041     1.68485
   143  H   1.0    0.05    1.00    1.43    35.79696    41.38117     5.56745
   144  H   1.0    0.05    1.01    1.43    33.80432    41.52269     8.22106
   145  H   1.0    0.06    1.01    1.43    33.00310    39.60571     5.59358
   146  N   5.0   -0.13    3.47    2.06    26.87106    41.18446     3.59523
   147  C   4.0    0.04    4.36    4.31    25.44699    38.95135     2.79129
   148  C   4.0    0.08    3.27    3.05    25.99985    38.21770     0.14642
   149  O   6.0   -0.31    1.19    1.80    25.87528    39.71921    -1.56432
   150  C   4.0   -0.04    4.41    4.39    22.58313    39.52081     2.94021
   151  C   4.0   -0.03    4.20    4.01    20.95843    37.24086     2.46642
   152  C   4.0   -0.07    4.17    3.93    21.49530    35.25235     4.43398
   153  C   4.0   -0.08    4.11    3.83    18.13410    37.98242     2.79307
   154  H   1.0    0.11    1.09    1.44    26.61793    42.78063     2.56852
   155  H   1.0    0.05    1.07    1.44    25.95978    37.45044     4.11160
   156  H   1.0    0.04    1.03    1.43    22.18174    40.27552     4.81692
   157  H   1.0    0.05    1.03    1.43    22.18174    41.00386     1.55777
   158  H   1.0    0.04    1.05    1.44    21.25846    36.49346     0.56485
   159  H   1.0    0.04    1.00    1.43    20.23183    33.64864     4.17517
   160  H   1.0    0.05    1.00    1.43    23.40493    34.50721     4.31589
   161  H   1.0    0.05    1.00    1.43    21.18962    36.02405     6.31334
   162  H   1.0    0.04    1.00    1.43    16.92400    36.35291     2.51006
   163  H   1.0    0.04    1.00    1.43    17.84179    38.71448     4.68797
   164  H   1.0    0.04    1.00    1.43    17.60525    39.43465     1.43683
   165  N   5.0   -0.18    3.25    1.97    24.34794    34.52147    -6.35925
   166  C   4.0    0.03    4.32    4.24    21.92926    34.15481    -7.62342
   167  C   4.0    0.08    3.25    3.04    22.60554    32.93128   -10.16427
   168  O   6.0   -0.27    1.14    1.80    24.38111    33.81860   -11.41142
   169  C   4.0   -0.02    4.31    4.22    20.53336    36.62192    -8.03948
   170  C   4.0   -0.05    4.19    3.98    19.63581    37.66660    -5.47811
   171  C   4.0   -0.08    4.13    3.85    18.13863    36.17352    -9.67321
   172  C   4.0   -0.08    3.99    3.60    19.08404    40.53795    -5.47947
   173  H   1.0    0.10    1.02    1.43    25.48587    35.83886    -7.18060
   174  H   1.0    0.04    1.05    1.44    20.82625    32.87693    -6.42984
   175  H   1.0    0.05    1.05    1.44    21.79699    37.97006    -8.95579
   176  H   1.0    0.04    1.03    1.43    17.94997    36.64299    -4.88042
   177  H   1.0    0.04    1.03    1.43    21.09493    37.33263    -4.05427
   178  H   1.0    0.03    1.00    1.43    16.98960    37.86661    -9.72017
   179  H   1.0    0.05    1.00    1.43    18.63233    35.68626   -11.60779
   180  H   1.0    0.04    1.00    1.43    17.03114    34.64793    -8.86541
   181  H   1.0    0.04    1.00    1.43    18.33822    41.10920    -3.65853
   182  H   1.0    0.04    1.00    1.43    20.82358    41.56216    -5.84348
   183  H   1.0    0.04    1.00    1.43    17.70789    41.02461    -6.92230
   184  N   5.0   -0.21    3.19    1.95    15.32144    39.99464   -14.48287
   185  C   4.0    0.03    4.20    4.00    16.76298    42.04858   -13.45843
   186  C   4.0    0.08    3.26    3.05    15.59107    44.58495   -13.87661
   187  O   6.0   -0.31    1.16    1.80    15.24760    46.19239   -12.20298
   188  C   4.0   -0.04    4.27    4.13    19.50686    42.07258   -14.56151
   189  C   4.0   -0.01    3.51    3.12    20.99704    44.50451   -13.95690
   190  C   4.0   -0.03    3.51    3.12    21.96495    45.06361   -11.58018
   191  C   4.0   -0.03    3.44    3.09    21.45440    46.26485   -15.83483
   192  C   4.0   -0.04    3.34    3.06    23.24060    47.23795   -10.87986
   193  C   4.0   -0.03    3.39    3.08    22.69934    48.51787   -15.19797
   194  C   4.0   -0.03    3.38    3.07    23.48799    49.03466   -12.74539
   195  H   1.0    0.09    1.02    1.43    16.06707    38.95330   -15.91828
   196  H   1.0    0.04    1.06    1.44    16.87956    41.84230   -11.39205
   197  H   1.0    0.04    1.02    1.43    20.49410    40.42292   -13.83590
   198  H   1.0    0.05    1.03    1.43    19.33679    41.91867   -16.60773
   199  H   1.0    0.05    1.03    1.43    21.68045    43.63259   -10.13204
   200  H   1.0    0.06    1.03    1.43    20.78163    45.98106   -17.73719
   201  H   1.0    0.06    1.03    1.43    23.98523    47.47858    -9.00688
   202  H   1.0    0.06    1.03    1.43    22.94963    49.93583   -16.63950
   203  H   1.0    0.05    1.03    1.43    24.35227    50.82662   -12.37136
   204  N   5.0   -0.20    3.24    1.97     9.94744    45.54966    -9.28255
   205  C   4.0    0.04    4.34    4.26    10.72294    46.07495    -6.79643
   206  C   4.0    0.15    3.43    3.09    11.86036    48.74221    -6.53016
   207  O   6.0   -0.32    1.27    1.80    11.61882    50.00244    -4.59901
   208  C   4.0   -0.04    4.27    4.15    12.64690    44.14345    -5.70920
   209  C   4.0   -0.02    3.50    3.11    11.32175    41.71954    -4.85360
   210  C   4.0   -0.04    3.52    3.12     9.25152    41.75136    -3.20090
   211  C   4.0   -0.04    3.50    3.12    11.89916    39.38177    -5.75340
   212  C   4.0   -0.03    3.41    3.08     7.92410    39.62726    -2.56559
   213  C   4.0   -0.04    3.40    3.08    10.71884    37.14951    -4.92218
   214  C   4.0   -0.03    3.38    3.07     8.57867    37.31409    -3.47303
   215  H   1.0    0.09    1.02    1.43    10.80432    44.15391   -10.28825
   216  H   1.0    0.05    1.06    1.44     9.03876    46.10402    -5.57594
   217  H   1.0    0.04    1.03    1.43    14.04872    43.73521    -7.15692
   218  H   1.0    0.04    1.03    1.43    13.55701    45.02002    -4.08467
   219  H   1.0    0.05    1.03    1.43     8.68266    43.54402    -2.39219
   220  H   1.0    0.04    1.03    1.43    13.45735    39.19054    -7.06288
   221  H   1.0    0.06    1.03    1.43     6.28793    39.82984    -1.35715
   222  H   1.0    0.05    1.03    1.43    11.31425    35.38184    -5.72506
   223  H   1.0    0.06    1.03    1.43     7.51675    35.65679    -2.94549
   224  N   5.0   -0.14    3.43    2.04    13.27482    49.43829    -8.45668
   225  C   4.0    0.04    4.27    4.13    14.49205    51.97177    -8.40819
   226  C   4.0    0.09    3.24    3.04    12.40793    54.02824    -8.34143
   227  O   6.0   -0.28    1.10    1.80    12.59383    55.88541    -6.89695
   228  H   1.0    0.11    1.10    1.44    13.56950    48.34830   -10.00156
   229  H   1.0    0.05    1.05    1.44    15.55004    52.14797    -6.64338
   230  C   4.0   -0.05    4.18    3.96    16.29011    52.57454   -10.65043
   231  C   4.0   -0.04    4.14    3.88    17.28561    55.31547   -10.81305
   232  C   4.0   -0.00    4.14    3.88    19.21888    56.12115    -8.77784
   233  N   5.0   -0.13    3.35    2.00    19.77082    58.85218    -8.92905
   234  C   4.0    0.10    3.34    3.06    21.44360    60.17968    -7.57387
   235  N   5.0   -0.17    3.25    1.97    23.27307    59.09869    -6.23893
   236  N   5.0   -0.17    3.24    1.97    21.54359    62.69711    -7.88781
   237  H   1.0    0.05    1.02    1.43    17.87706    51.26208   -10.56823
   238  H   1.0    0.05    1.03    1.43    15.23544    52.20428   -12.38726
   239  H   1.0    0.05    1.03    1.43    18.15641    55.48023   -12.67074
   240  H   1.0    0.06    1.03    1.43    15.68271    56.61551   -10.76919
   241  H   1.0    0.06    1.04    1.43    18.45287    55.69783    -6.91291
   242  H   1.0    0.04    1.02    1.43    20.98490    55.08668    -9.04494
   243  H   1.0    0.08    1.07    1.44    18.36625    59.94718    -9.71439
   244  H   1.0    0.10    1.04    1.43    22.98042    57.37184    -5.47572
   245  H   1.0    0.10    1.03    1.43    24.47428    60.23411    -5.24384
   246  H   1.0    0.09    1.03    1.43    20.02784    63.53213    -8.69953
   247  H   1.0    0.10    1.03    1.43    22.70419    63.76823    -6.80608
   248  N   5.0   -0.19    3.20    1.96     9.40011    54.14037    -1.78350
   249  C   4.0    0.04    4.23    4.06    11.10708    55.22720     0.11416
   250  C   4.0    0.10    3.25    3.04    11.30735    58.05171    -0.18699
   251  O   6.0   -0.25    1.10    1.80    11.24680    59.63200     1.59760
   252  C   4.0   -0.03    4.38    4.35    13.72494    54.12487    -0.15139
   253  C   4.0    0.16    3.25    3.04    15.60892    54.87361     1.84831
   254  O   6.0   -0.29    1.28    1.80    17.61420    55.92112     1.29887
   255  N   5.0   -0.18    3.25    1.97    14.83772    54.40984     4.09288
   256  H   1.0    0.12    1.05    1.44    10.11366    52.89928    -3.06118
   257  H   1.0    0.05    1.05    1.44    10.26695    54.88195     1.97983
   258  H   1.0    0.05    1.03    1.43    13.54953    52.06077    -0.14511
   259  H   1.0    0.07    1.03    1.43    14.48129    54.66244    -1.99872
   260  H   1.0    0.10    1.03    1.43    15.72888    55.13768     5.63871
   261  H   1.0    0.08    1.05    1.44    13.18127    53.50170     4.34734
   262  N   5.0   -0.19    3.33    1.99    44.15550    56.13245     8.51649
   263  C   4.0    0.04    4.53    4.57    43.62620    56.16703     5.91945
   264  C   4.0    0.15    3.49    3.11    41.13423    57.52197     5.48484
   265  O   6.0   -0.32    1.30    1.80    39.30088    57.25911     6.94364
   266  H   1.0    0.11    1.05    1.44    42.78021    55.43300     9.65788
   267  H   1.0    0.05    1.07    1.44    45.14662    57.19128     4.95907
   268  C   4.0    0.06    4.34    4.27    43.58981    53.52212     4.99329
   269  O   6.0   -0.24    2.16    1.85    43.63361    53.74863     2.38609
   270  C   4.0   -0.06    4.18    3.97    41.38229    52.14598     6.17929
   271  H   1.0    0.05    1.05    1.44    45.37355    52.60700     5.55642
   272  H   1.0    0.13    1.03    1.43    42.01041    53.28212     1.68485
   273  H   1.0    0.06    1.01    1.43    41.38117    50.18557     5.56745
   274  H   1.0    0.05    1.01    1.43    41.52269    52.17821     8.22106
   275  H   1.0    0.07    1.01    1.43    39.60571    52.97943     5.59358
   276  N   5.0   -0.13    3.46    2.05    41.18446    59.11147     3.59523
   277  C   4.0    0.04    4.45    4.46    38.95135    60.53554     2.79129
   278  C   4.0    0.15    3.44    3.09    38.21770    59.98268     0.14642
   279  O   6.0   -0.28    1.27    1.80    39.71921    60.10725    -1.56432
   280  C   4.0   -0.04    4.41    4.39    39.52081    63.39940     2.94021
   281  C   4.0   -0.02    4.20    4.01    37.24086    65.02410     2.46642
   282  C   4.0   -0.06    4.17    3.93    35.25235    64.48723     4.43398
   283  C   4.0   -0.07    4.11    3.83    37.98242    67.84843     2.79307
   284  H   1.0    0.09    1.07    1.44    42.78063    59.36460     2.56852
   285  H   1.0    0.06    1.07    1.44    37.45044    60.02276     4.11160
   286  H   1.0    0.05    1.03    1.43    40.27552    63.80079     4.81692
   287  H   1.0    0.06    1.03    1.43    41.00386    63.80079     1.55777
   288  H   1.0    0.06    1.05    1.44    36.49346    64.72407     0.56485
   289  H   1.0    0.05    1.00    1.43    33.64864    65.75070     4.17517
   290  H   1.0    0.06    1.00    1.43    34.50721    62.57760     4.31589
   291  H   1.0    0.05    1.00    1.43    36.02405    64.79292     6.31334
   292  H   1.0    0.05    1.00    1.43    36.35291    69.05853     2.51006
   293  H   1.0    0.05    1.00    1.43    38.71448    68.14074     4.68797
   294  H   1.0    0.05    1.00    1.43    39.43465    68.37728     1.43683
   295  N   5.0   -0.13    3.46    2.05    35.84992    59.20543    -0.37903
   296  C   4.0    0.04    4.34    4.26    34.79518    58.66226    -2.86750
   297  C   4.0    0.09    3.20    3.04    33.76719    61.13459    -4.03810
   298  O   6.0   -0.29    1.18    1.80    32.22020    62.35375    -2.83565
   299  C   4.0   -0.03    4.31    4.21    32.81117    56.61105    -2.64255
   300  C   4.0   -0.03    4.28    4.16    32.08471    55.85604    -5.28115
   301  C   4.0    0.16    3.24    3.04    30.41934    53.48925    -5.14356
   302  O   6.0   -0.32    1.29    1.80    28.44145    53.49812    -4.02600
   303  N   5.0   -0.18    3.21    1.96    31.22832    51.50302    -6.37107
   304  H   1.0    0.10    1.08    1.44    34.58066    59.10138     1.05914
   305  H   1.0    0.06    1.06    1.44    36.37007    57.99691    -4.04166
   306  H   1.0    0.05    1.03    1.43    33.61249    55.02193    -1.60355
   307  H   1.0    0.07    1.03    1.43    31.16529    57.32083    -1.62356
   308  H   1.0    0.06    1.03    1.43    30.96342    57.34907    -6.15464
   309  H   1.0    0.04    1.03    1.43    33.74195    55.48619    -6.44463
   310  H   1.0    0.08    1.03    1.43    32.77716    51.54637    -7.49902
   311  H   1.0    0.12    1.06    1.44    30.12969    49.93118    -6.49528
   312  H   1.0    0.10    1.09    1.44    30.80874    40.45170    -8.80286
   313  H   1.0    0.05    1.04    1.43    21.62073    54.53827    10.78876
   314  H   1.0    0.10    1.12    1.45    29.53006    55.55042    17.60384
   315  H   1.0    0.05    1.05    1.44    26.49114    36.43822    -0.25751
   316  H   1.0    0.09    1.07    1.44    24.08051    35.02871    -4.75808
   317  H   1.0    0.06    1.04    1.43    21.62073    31.44426   -10.78876
   318  H   1.0    0.09    1.08    1.44    15.00012    38.85982   -13.25751
   319  H   1.0    0.06    1.05    1.44    15.01950    45.08815   -15.60611
   320  H   1.0    0.10    1.08    1.44     8.30637    45.10307    -9.28297
   321  H   1.0    0.06    1.04    1.43    10.89431    53.87627    -9.46256
   322  H   1.0    0.10    1.07    1.44     8.15368    53.28608    -1.00301
   323  H   1.0    0.08    1.05    1.44    11.50585    58.80673    -1.90793
   324  H   1.0    0.10    1.09    1.44    45.53083    55.17379     8.80286
   325  H   1.0    0.06    1.04    1.43    34.37084    61.69750    -5.73804

  Z AO/shell   Hii/eV     exponent
  1     Wed Apr 25 08:07:45 CEST 2018   EN: 2.200 GM2: 0.406  GM3: 0.0800  RAES: 1.40
     1s    -10.707211    1.230000
  6     Wed Apr 25 08:07:45 CEST 2018   EN: 2.550 GM2: 0.538  GM3: 0.1500  RAES: 3.00
     2s    -13.970922    2.096432
     2p    -10.063292    1.800000
  7     Wed Apr 25 08:07:45 CEST 2018   EN: 3.040 GM2: 0.461  GM3:-0.0640  RAES: 1.90
     2s    -16.686243    2.339881
     2p    -12.523956    2.014332
  8     Wed Apr 25 08:07:45 CEST 2018   EN: 3.440 GM2: 0.452  GM3:-0.0517  RAES: 1.80
     2s    -20.229985    2.439742
     2p    -15.503117    2.137023
 no old-style atom pair restraining (fixing) potential

molecular fragmentation (1/2 indicates fragments):
111111111111111111111111111111111111111111111111111111111111111111111222
222222222222222222222222222222222222222222222222222222222222222222222222
222222222222222222222222222222222222222222222222222222222222222222222222
222222222222222222222222222222222222222222222222222222222222222222222222
2222222222222222222222211222222222222
# atoms in fragment 1/2:    71   254
 fragment masses (1/2) :      457.57     1684.02
CMA distance (Bohr)    :   1.507
constraining FC (au)   :  0.0500
           ------------------------------------------------- 
          |        Self-Consistent Charge Iterations        |
           ------------------------------------------------- 

 Ncao       : 775
 Nao        : 775
 Nshell     : 475
 Nel        : 856
 T(el)      :   500.0
 intcut     :    35.0
 scfconv/Eh :  0.100E-06
   qconv/e  :  0.100E-04
 intneglect :  0.100E-08
 broydamp   :      0.400
 iter      E             dE          RMSdq      gap      omega  full diag
   1   -490.0635319 -0.490064E+03  0.461E+00    2.98       0.0  T
   2   -491.1197911 -0.105626E+01  0.222E+00    1.72       1.0  T
   3   -491.1834524 -0.636613E-01  0.121E+00    1.86       1.0  T
   4   -491.2713235 -0.878711E-01  0.273E-01    1.25       1.0  T
   5   -491.2756824 -0.435887E-02  0.125E-01    1.46       1.0  T
   6   -491.2770333 -0.135094E-02  0.457E-02    1.46       1.0  T
   7   -491.2771846 -0.151283E-03  0.229E-02    1.45       1.0  T
   8   -491.2772068 -0.222398E-04  0.113E-02    1.46       1.0  T
   9   -491.2772186 -0.118183E-04  0.455E-03    1.46       1.2  T
  10   -491.2772203 -0.164821E-05  0.226E-03    1.46       2.5  T
  11   -491.2772206 -0.298991E-06  0.103E-03    1.46       5.4  T
  12   -491.2772207 -0.746029E-07  0.457E-04    1.46      12.1  T
  13   -491.2772207 -0.213838E-07  0.206E-04    1.46      27.0  T
  14   -491.2772207 -0.209968E-08  0.102E-04    1.46      54.3  T
  15   -491.2772207 -0.778527E-09  0.387E-05    1.46     143.4  T
  16   -491.2772207 -0.109253E-09  0.158E-05    1.46     351.9  T
speedup  8.24
cpu  time for SCC   17.96 s
wall time for SCC    2.18 s

   *** convergence criteria satisfied after 16 iterations ***

          eigenvalues
 #    :         416        417        418        419        420        421        422        423
 occ. :        2.000      2.000      2.000      2.000      2.000      2.000      2.000      2.000
 eps  :       -10.765    -10.734    -10.715    -10.653    -10.567    -10.321    -10.185    -10.090
 #    :         424        425        426        427        428        429        430        431
 occ. :        2.000      2.000      2.000      2.000      2.000      0.000      0.000      0.000
 eps  :        -9.877     -9.847     -9.811     -9.763     -9.720     -8.257     -8.162     -8.158
 #    :         432        433        434        435        436        437        438        439
 occ. :        0.000      0.000      0.000      0.000      0.000      0.000      0.000      0.000
 eps  :        -7.943     -7.884     -7.867     -7.715     -6.641     -6.272     -6.259     -6.194


   #   Z            q   n(s)   n(p)   n(d)      C6AA      α(0)
   1   7 N     -0.394  1.308  4.086  0.000    30.191     8.161
   2   6 C      0.032  1.048  2.921  0.000    20.033     6.371
   3   6 C      0.267  1.043  2.690  0.000    22.495     7.767
   4   8 O     -0.500  1.743  4.757  0.000    23.783     6.538
   5   1 H      0.168  0.832  0.000  0.000     1.288     1.778
   6   1 H      0.046  0.954  0.000  0.000     2.368     2.406
   7   6 C      0.117  1.037  2.846  0.000    18.727     6.172
   8   8 O     -0.491  1.715  4.775  0.000    22.692     6.431
   9   6 C     -0.137  1.039  3.097  0.000    23.179     6.863
  10   1 H      0.019  0.981  0.000  0.000     2.753     2.595
  11   1 H      0.333  0.667  0.000  0.000     0.630     1.247
  12   1 H      0.049  0.951  0.000  0.000     2.334     2.389
  13   1 H      0.060  0.940  0.000  0.000     2.200     2.319
  14   1 H      0.058  0.942  0.000  0.000     2.227     2.334
  15   7 N     -0.162  1.246  3.915  0.000    24.496     7.351
  16   6 C      0.013  1.056  2.930  0.000    20.354     6.424
  17   6 C      0.276  1.038  2.686  0.000    22.333     7.739
  18   8 O     -0.483  1.722  4.761  0.000    23.408     6.487
  19   6 C     -0.068  1.058  3.010  0.000    21.785     6.642
  20   6 C     -0.009  1.050  2.959  0.000    20.697     6.471
  21   6 C     -0.132  1.042  3.091  0.000    23.084     6.848
  22   6 C     -0.115  1.045  3.071  0.000    22.758     6.801
  23   1 H      0.222  0.778  0.000  0.000     1.000     1.567
  24   1 H      0.086  0.914  0.000  0.000     1.915     2.164
  25   1 H      0.061  0.939  0.000  0.000     2.187     2.313
  26   1 H      0.049  0.951  0.000  0.000     2.333     2.389
  27   1 H      0.025  0.975  0.000  0.000     2.665     2.553
  28   1 H      0.062  0.938  0.000  0.000     2.178     2.308
  29   1 H      0.044  0.956  0.000  0.000     2.394     2.419
  30   1 H      0.053  0.947  0.000  0.000     2.286     2.364
  31   1 H      0.044  0.956  0.000  0.000     2.402     2.424
  32   1 H      0.049  0.951  0.000  0.000     2.332     2.388
  33   1 H      0.029  0.971  0.000  0.000     2.596     2.520
  34   7 N     -0.186  1.250  3.935  0.000    25.027     7.430
  35   6 C      0.017  1.067  2.915  0.000    20.288     6.413
  36   6 C      0.272  1.038  2.691  0.000    22.406     7.751
  37   8 O     -0.461  1.737  4.723  0.000    22.932     6.420
  38   6 C     -0.064  1.047  3.017  0.000    21.712     6.632
  39   6 C     -0.099  1.055  3.045  0.000    22.376     6.732
  40   6 C      0.292  1.031  2.677  0.000    22.039     7.687
  41   8 O     -0.503  1.725  4.779  0.000    23.854     6.548
  42   7 N     -0.282  1.268  4.014  0.000    27.286     7.758
  43   1 H      0.217  0.783  0.000  0.000     1.025     1.586
  44   1 H      0.070  0.930  0.000  0.000     2.086     2.259
  45   1 H      0.055  0.945  0.000  0.000     2.264     2.353
  46   1 H      0.085  0.915  0.000  0.000     1.926     2.171
  47   1 H      0.060  0.940  0.000  0.000     2.197     2.318
  48   1 H      0.054  0.946  0.000  0.000     2.269     2.356
  49   1 H      0.225  0.775  0.000  0.000     0.987     1.556
  50   1 H      0.228  0.772  0.000  0.000     0.975     1.547
  51   7 N     -0.177  1.251  3.926  0.000    24.838     7.402
  52   6 C      0.026  1.061  2.913  0.000    20.149     6.392
  53   6 C      0.198  1.095  2.707  0.000    23.780     7.987
  54   8 O     -0.358  1.751  4.607  0.000    20.867     6.124
  55   6 C     -0.020  1.066  2.954  0.000    20.901     6.502
  56   6 C     -0.063  1.054  3.010  0.000    21.710     6.633
  57   6 C     -0.126  1.044  3.082  0.000    22.978     6.835
  58   6 C     -0.112  1.040  3.073  0.000    22.717     6.798
  59   1 H      0.235  0.765  0.000  0.000     0.944     1.522
  60   1 H      0.090  0.910  0.000  0.000     1.882     2.145
  61   1 H      0.053  0.947  0.000  0.000     2.280     2.362
  62   1 H      0.049  0.951  0.000  0.000     2.331     2.388
  63   1 H      0.035  0.965  0.000  0.000     2.522     2.484
  64   1 H      0.067  0.933  0.000  0.000     2.116     2.275
  65   1 H      0.038  0.962  0.000  0.000     2.479     2.462
  66   1 H      0.054  0.946  0.000  0.000     2.277     2.359
  67   1 H      0.047  0.953  0.000  0.000     2.352     2.398
  68   1 H      0.040  0.960  0.000  0.000     2.454     2.450
  69   1 H      0.044  0.956  0.000  0.000     2.398     2.421
  70   8 O     -0.639  1.770  4.868  0.000    26.135     6.900
  71   1 H      0.320  0.680  0.000  0.000     0.663     1.279
  72   1 H      0.315  0.685  0.000  0.000     0.678     1.293
  73   8 O     -0.609  1.748  4.861  0.000    25.407     6.803
  74   1 H      0.329  0.671  0.000  0.000     0.641     1.257
  75   1 H      0.298  0.702  0.000  0.000     0.728     1.340
  76   8 O     -0.654  1.766  4.888  0.000    26.522     6.951
  77   1 H      0.302  0.698  0.000  0.000     0.714     1.327
  78   1 H      0.312  0.688  0.000  0.000     0.685     1.300
  79   8 O     -0.642  1.749  4.893  0.000    26.205     6.909
  80   1 H      0.304  0.696  0.000  0.000     0.709     1.322
  81   1 H      0.306  0.694  0.000  0.000     0.703     1.317
  82   8 O     -0.631  1.746  4.885  0.000    25.949     6.875
  83   1 H      0.310  0.690  0.000  0.000     0.690     1.305
  84   1 H      0.298  0.702  0.000  0.000     0.728     1.340
  85   8 O     -0.629  1.765  4.864  0.000    25.887     6.867
  86   1 H      0.326  0.674  0.000  0.000     0.647     1.264
  87   1 H      0.305  0.695  0.000  0.000     0.705     1.319
  88   8 O     -0.634  1.762  4.872  0.000    26.016     6.884
  89   1 H      0.307  0.693  0.000  0.000     0.699     1.313
  90   1 H      0.322  0.678  0.000  0.000     0.659     1.275
  91   7 N     -0.389  1.320  4.070  0.000    30.077     8.145
  92   6 C      0.031  1.062  2.907  0.000    20.054     6.377
  93   6 C      0.272  1.051  2.677  0.000    22.398     7.750
  94   8 O     -0.495  1.756  4.739  0.000    23.672     6.523
  95   1 H      0.155  0.845  0.000  0.000     1.365     1.830
  96   1 H      0.051  0.949  0.000  0.000     2.306     2.375
  97   6 C     -0.071  1.053  3.018  0.000    21.850     6.653
  98   6 C      0.003  1.075  2.922  0.000    27.959     8.673
  99   6 C     -0.044  1.081  2.963  0.000    29.089     8.845
 100   6 C     -0.042  1.081  2.961  0.000    29.052     8.839
 101   6 C     -0.063  1.073  2.990  0.000    29.563     8.916
 102   6 C     -0.075  1.078  2.998  0.000    29.879     8.964
 103   6 C      0.142  1.046  2.812  0.000    24.910     8.180
 104   8 O     -0.449  1.726  4.723  0.000    21.818     6.306
 105   1 H      0.043  0.957  0.000  0.000     2.409     2.427
 106   1 H      0.042  0.958  0.000  0.000     2.425     2.435
 107   1 H      0.043  0.957  0.000  0.000     2.415     2.430
 108   1 H      0.041  0.959  0.000  0.000     2.441     2.443
 109   1 H      0.044  0.956  0.000  0.000     2.390     2.418
 110   1 H      0.045  0.955  0.000  0.000     2.383     2.414
 111   1 H      0.348  0.652  0.000  0.000     0.592     1.209
 112   7 N     -0.189  1.256  3.933  0.000    25.096     7.440
 113   6 C      0.026  1.060  2.914  0.000    20.143     6.391
 114   6 C      0.256  1.052  2.692  0.000    22.694     7.801
 115   8 O     -0.486  1.731  4.755  0.000    23.486     6.498
 116   6 C     -0.069  1.050  3.019  0.000    21.804     6.645
 117   6 C      0.014  1.076  2.909  0.000    27.685     8.631
 118   6 C     -0.039  1.081  2.958  0.000    28.974     8.827
 119   6 C     -0.042  1.082  2.960  0.000    29.050     8.839
 120   6 C     -0.031  1.080  2.951  0.000    28.774     8.797
 121   6 C     -0.032  1.080  2.952  0.000    28.792     8.799
 122   6 C     -0.033  1.078  2.955  0.000    28.831     8.805
 123   1 H      0.235  0.765  0.000  0.000     0.944     1.522
 124   1 H      0.073  0.927  0.000  0.000     2.052     2.240
 125   1 H      0.059  0.941  0.000  0.000     2.211     2.325
 126   1 H      0.055  0.945  0.000  0.000     2.264     2.353
 127   1 H      0.042  0.958  0.000  0.000     2.419     2.432
 128   1 H      0.036  0.964  0.000  0.000     2.508     2.477
 129   1 H      0.036  0.964  0.000  0.000     2.504     2.475
 130   1 H      0.033  0.967  0.000  0.000     2.549     2.497
 131   1 H      0.032  0.968  0.000  0.000     2.557     2.501
 132   7 N     -0.159  1.230  3.928  0.000    24.429     7.341
 133   6 C      0.011  1.054  2.934  0.000    20.369     6.423
 134   6 C      0.267  1.038  2.695  0.000    22.492     7.767
 135   8 O     -0.513  1.761  4.752  0.000    24.078     6.579
 136   1 H      0.204  0.796  0.000  0.000     1.084     1.631
 137   1 H      0.099  0.901  0.000  0.000     1.794     2.095
 138   6 C      0.117  1.034  2.849  0.000    18.728     6.173
 139   8 O     -0.470  1.705  4.765  0.000    22.244     6.367
 140   6 C     -0.144  1.041  3.104  0.000    23.331     6.886
 141   1 H      0.040  0.960  0.000  0.000     2.455     2.450
 142   1 H      0.336  0.664  0.000  0.000     0.622     1.238
 143   1 H      0.064  0.936  0.000  0.000     2.157     2.297
 144   1 H      0.061  0.939  0.000  0.000     2.188     2.313
 145   1 H      0.060  0.940  0.000  0.000     2.201     2.320
 146   7 N     -0.157  1.245  3.912  0.000    24.394     7.335
 147   6 C      0.018  1.054  2.928  0.000    20.273     6.411
 148   6 C      0.208  1.074  2.719  0.000    23.595     7.956
 149   8 O     -0.345  1.730  4.616  0.000    20.619     6.088
 150   6 C     -0.068  1.061  3.007  0.000    21.779     6.641
 151   6 C     -0.010  1.052  2.958  0.000    20.719     6.474
 152   6 C     -0.121  1.040  3.081  0.000    22.853     6.813
 153   6 C     -0.121  1.047  3.074  0.000    22.859     6.816
 154   1 H      0.237  0.763  0.000  0.000     0.936     1.516
 155   1 H      0.088  0.912  0.000  0.000     1.897     2.154
 156   1 H      0.067  0.933  0.000  0.000     2.122     2.278
 157   1 H      0.065  0.935  0.000  0.000     2.145     2.290
 158   1 H      0.032  0.968  0.000  0.000     2.565     2.505
 159   1 H      0.046  0.954  0.000  0.000     2.370     2.407
 160   1 H      0.033  0.967  0.000  0.000     2.539     2.492
 161   1 H      0.049  0.951  0.000  0.000     2.336     2.390
 162   1 H      0.048  0.952  0.000  0.000     2.342     2.393
 163   1 H      0.049  0.951  0.000  0.000     2.330     2.387
 164   1 H      0.043  0.957  0.000  0.000     2.408     2.427
 165   7 N     -0.382  1.327  4.055  0.000    29.887     8.119
 166   6 C      0.037  1.059  2.904  0.000    19.970     6.364
 167   6 C      0.201  1.091  2.708  0.000    23.717     7.976
 168   8 O     -0.373  1.766  4.607  0.000    21.155     6.167
 169   6 C     -0.021  1.067  2.954  0.000    20.913     6.504
 170   6 C     -0.061  1.054  3.007  0.000    21.673     6.628
 171   6 C     -0.113  1.042  3.071  0.000    22.712     6.795
 172   6 C     -0.106  1.039  3.067  0.000    22.584     6.778
 173   1 H      0.162  0.838  0.000  0.000     1.325     1.803
 174   1 H      0.054  0.946  0.000  0.000     2.277     2.360
 175   1 H      0.047  0.953  0.000  0.000     2.363     2.404
 176   1 H      0.043  0.957  0.000  0.000     2.413     2.429
 177   1 H      0.030  0.970  0.000  0.000     2.587     2.515
 178   1 H      0.049  0.951  0.000  0.000     2.331     2.387
 179   1 H      0.028  0.972  0.000  0.000     2.615     2.529
 180   1 H      0.044  0.956  0.000  0.000     2.398     2.422
 181   1 H      0.044  0.956  0.000  0.000     2.399     2.422
 182   1 H      0.043  0.957  0.000  0.000     2.415     2.430
 183   1 H      0.036  0.964  0.000  0.000     2.499     2.472
 184   7 N     -0.382  1.305  4.077  0.000    29.876     8.118
 185   6 C      0.050  1.048  2.902  0.000    19.751     6.331
 186   6 C      0.197  1.092  2.711  0.000    23.798     7.989
 187   8 O     -0.370  1.748  4.622  0.000    21.094     6.158
 188   6 C     -0.075  1.066  3.009  0.000    21.926     6.666
 189   6 C      0.002  1.087  2.911  0.000    27.985     8.677
 190   6 C     -0.036  1.079  2.957  0.000    28.890     8.816
 191   6 C     -0.044  1.085  2.959  0.000    29.088     8.845
 192   6 C     -0.031  1.080  2.952  0.000    28.785     8.797
 193   6 C     -0.038  1.085  2.953  0.000    28.953     8.824
 194   6 C     -0.036  1.080  2.956  0.000    28.886     8.814
 195   1 H      0.167  0.833  0.000  0.000     1.291     1.780
 196   1 H      0.046  0.954  0.000  0.000     2.364     2.405
 197   1 H      0.058  0.942  0.000  0.000     2.218     2.329
 198   1 H      0.053  0.947  0.000  0.000     2.279     2.361
 199   1 H      0.026  0.974  0.000  0.000     2.649     2.545
 200   1 H      0.028  0.972  0.000  0.000     2.608     2.526
 201   1 H      0.054  0.946  0.000  0.000     2.275     2.359
 202   1 H      0.039  0.961  0.000  0.000     2.463     2.454
 203   1 H      0.049  0.951  0.000  0.000     2.332     2.388
 204   7 N     -0.381  1.295  4.086  0.000    29.838     8.113
 205   6 C      0.037  1.054  2.909  0.000    19.967     6.365
 206   6 C      0.265  1.048  2.687  0.000    22.538     7.774
 207   8 O     -0.511  1.743  4.768  0.000    24.025     6.572
 208   6 C     -0.076  1.061  3.015  0.000    21.945     6.669
 209   6 C      0.012  1.083  2.904  0.000    27.741     8.639
 210   6 C     -0.040  1.079  2.961  0.000    28.998     8.832
 211   6 C     -0.039  1.079  2.960  0.000    28.979     8.829
 212   6 C     -0.030  1.073  2.958  0.000    28.757     8.795
 213   6 C     -0.036  1.082  2.954  0.000    28.907     8.817
 214   6 C     -0.032  1.073  2.959  0.000    28.797     8.800
 215   1 H      0.157  0.843  0.000  0.000     1.355     1.823
 216   1 H      0.034  0.966  0.000  0.000     2.526     2.486
 217   1 H      0.055  0.945  0.000  0.000     2.259     2.351
 218   1 H      0.059  0.941  0.000  0.000     2.208     2.324
 219   1 H      0.027  0.973  0.000  0.000     2.627     2.535
 220   1 H      0.033  0.967  0.000  0.000     2.542     2.493
 221   1 H      0.026  0.974  0.000  0.000     2.650     2.546
 222   1 H      0.035  0.965  0.000  0.000     2.519     2.482
 223   1 H      0.027  0.973  0.000  0.000     2.634     2.538
 224   7 N     -0.169  1.252  3.918  0.000    24.665     7.376
 225   6 C      0.018  1.069  2.913  0.000    20.288     6.415
 226   6 C      0.198  1.093  2.708  0.000    23.771     7.984
 227   8 O     -0.362  1.765  4.597  0.000    20.938     6.135
 228   1 H      0.242  0.758  0.000  0.000     0.915     1.498
 229   1 H      0.097  0.903  0.000  0.000     1.809     2.104
 230   6 C     -0.078  1.059  3.018  0.000    21.986     6.676
 231   6 C     -0.081  1.055  3.026  0.000    22.045     6.686
 232   6 C     -0.034  1.059  2.974  0.000    21.271     6.584
 233   7 N     -0.135  1.228  3.907  0.000    23.929     7.265
 234   6 C      0.228  1.024  2.748  0.000    23.202     7.886
 235   7 N     -0.236  1.247  3.989  0.000    26.181     7.599
 236   7 N     -0.272  1.252  4.020  0.000    27.032     7.722
 237   1 H      0.080  0.920  0.000  0.000     1.981     2.201
 238   1 H      0.072  0.928  0.000  0.000     2.060     2.244
 239   1 H      0.080  0.920  0.000  0.000     1.982     2.201
 240   1 H      0.056  0.944  0.000  0.000     2.246     2.344
 241   1 H      0.106  0.894  0.000  0.000     1.727     2.055
 242   1 H      0.091  0.909  0.000  0.000     1.869     2.138
 243   1 H      0.221  0.779  0.000  0.000     1.003     1.569
 244   1 H      0.255  0.745  0.000  0.000     0.863     1.455
 245   1 H      0.239  0.761  0.000  0.000     0.928     1.509
 246   1 H      0.240  0.760  0.000  0.000     0.924     1.506
 247   1 H      0.248  0.752  0.000  0.000     0.892     1.480
 248   7 N     -0.398  1.317  4.081  0.000    30.325     8.179
 249   6 C      0.050  1.049  2.901  0.000    19.757     6.331
 250   6 C      0.197  1.099  2.704  0.000    23.810     7.992
 251   8 O     -0.407  1.779  4.628  0.000    21.831     6.264
 252   6 C     -0.104  1.059  3.046  0.000    22.466     6.744
 253   6 C      0.289  1.023  2.688  0.000    22.102     7.698
 254   8 O     -0.495  1.744  4.751  0.000    23.663     6.522
 255   7 N     -0.253  1.249  4.004  0.000    26.580     7.657
 256   1 H      0.189  0.811  0.000  0.000     1.165     1.691
 257   1 H      0.050  0.950  0.000  0.000     2.318     2.381
 258   1 H      0.088  0.912  0.000  0.000     1.902     2.157
 259   1 H      0.090  0.910  0.000  0.000     1.875     2.142
 260   1 H      0.225  0.775  0.000  0.000     0.988     1.557
 261   1 H      0.230  0.770  0.000  0.000     0.967     1.540
 262   7 N     -0.406  1.312  4.094  0.000    30.527     8.206
 263   6 C      0.036  1.047  2.916  0.000    19.956     6.358
 264   6 C      0.270  1.043  2.686  0.000    22.431     7.756
 265   8 O     -0.502  1.741  4.762  0.000    23.837     6.546
 266   1 H      0.184  0.816  0.000  0.000     1.192     1.711
 267   1 H      0.032  0.968  0.000  0.000     2.564     2.504
 268   6 C      0.122  1.037  2.842  0.000    18.658     6.161
 269   8 O     -0.496  1.721  4.775  0.000    22.803     6.446
 270   6 C     -0.147  1.042  3.105  0.000    23.394     6.895
 271   1 H      0.017  0.983  0.000  0.000     2.782     2.609
 272   1 H      0.334  0.666  0.000  0.000     0.626     1.243
 273   1 H      0.069  0.931  0.000  0.000     2.091     2.261
 274   1 H      0.064  0.936  0.000  0.000     2.156     2.296
 275   1 H      0.061  0.939  0.000  0.000     2.188     2.313
 276   7 N     -0.154  1.244  3.910  0.000    24.340     7.327
 277   6 C      0.014  1.057  2.929  0.000    20.338     6.421
 278   6 C      0.278  1.036  2.686  0.000    22.295     7.732
 279   8 O     -0.486  1.736  4.750  0.000    23.477     6.496
 280   6 C     -0.070  1.058  3.012  0.000    21.830     6.649
 281   6 C     -0.007  1.050  2.956  0.000    20.661     6.465
 282   6 C     -0.121  1.040  3.081  0.000    22.863     6.815
 283   6 C     -0.120  1.047  3.073  0.000    22.847     6.814
 284   1 H      0.210  0.790  0.000  0.000     1.056     1.610
 285   1 H      0.086  0.914  0.000  0.000     1.923     2.169
 286   1 H      0.058  0.942  0.000  0.000     2.228     2.334
 287   1 H      0.052  0.948  0.000  0.000     2.301     2.372
 288   1 H      0.026  0.974  0.000  0.000     2.642     2.542
 289   1 H      0.049  0.951  0.000  0.000     2.331     2.388
 290   1 H      0.042  0.958  0.000  0.000     2.416     2.431
 291   1 H      0.044  0.956  0.000  0.000     2.393     2.419
 292   1 H      0.049  0.951  0.000  0.000     2.338     2.391
 293   1 H      0.045  0.955  0.000  0.000     2.383     2.414
 294   1 H      0.037  0.963  0.000  0.000     2.485     2.465
 295   7 N     -0.185  1.248  3.937  0.000    25.000     7.426
 296   6 C      0.025  1.063  2.913  0.000    20.168     6.395
 297   6 C      0.200  1.091  2.709  0.000    23.738     7.979
 298   8 O     -0.337  1.749  4.588  0.000    20.463     6.065
 299   6 C     -0.065  1.048  3.017  0.000    21.739     6.636
 300   6 C     -0.111  1.059  3.052  0.000    22.600     6.766
 301   6 C      0.294  1.029  2.677  0.000    22.009     7.682
 302   8 O     -0.492  1.721  4.771  0.000    23.612     6.515
 303   7 N     -0.277  1.267  4.010  0.000    27.150     7.739
 304   1 H      0.214  0.786  0.000  0.000     1.037     1.595
 305   1 H      0.083  0.917  0.000  0.000     1.947     2.182
 306   1 H      0.063  0.937  0.000  0.000     2.170     2.303
 307   1 H      0.090  0.910  0.000  0.000     1.883     2.146
 308   1 H      0.082  0.918  0.000  0.000     1.958     2.188
 309   1 H      0.062  0.938  0.000  0.000     2.171     2.304
 310   1 H      0.220  0.780  0.000  0.000     1.010     1.574
 311   1 H      0.238  0.762  0.000  0.000     0.932     1.513
 312   1 H      0.175  0.825  0.000  0.000     1.245     1.748
 313   1 H      0.090  0.910  0.000  0.000     1.883     2.146
 314   1 H      0.183  0.817  0.000  0.000     1.199     1.715
 315   1 H      0.071  0.929  0.000  0.000     2.075     2.252
 316   1 H      0.175  0.825  0.000  0.000     1.242     1.746
 317   1 H      0.068  0.932  0.000  0.000     2.107     2.270
 318   1 H      0.182  0.818  0.000  0.000     1.205     1.719
 319   1 H      0.075  0.925  0.000  0.000     2.026     2.226
 320   1 H      0.179  0.821  0.000  0.000     1.218     1.729
 321   1 H      0.074  0.926  0.000  0.000     2.046     2.236
 322   1 H      0.181  0.819  0.000  0.000     1.210     1.723
 323   1 H      0.090  0.910  0.000  0.000     1.878     2.143
 324   1 H      0.176  0.824  0.000  0.000     1.234     1.740
 325   1 H      0.091  0.909  0.000  0.000     1.865     2.135

 Mol. C6AA /au·bohr⁶  :     932844.385041
 Mol. C8AA /au·bohr⁸  :   20630719.710314
 Mol. α(0) /au        :       1455.594336

 
 Wiberg/Mayer (AO) data. WBOs > 0.1 written file <wbo>
 largest (>0.05) Wiberg bond orders for each atom
           total WBO             WBO to atom ...
     1  N   2.990    C    2 1.021    H  312 0.952    H    5 0.943
     2  C   3.986    N    1 1.021    C    7 0.956    H    6 0.948    C    3 0.945
     3  C   3.950    O    4 1.569    N   15 1.355    C    2 0.945
     4  O   1.928    C    3 1.569    N   15 0.194
     5  H   0.972    N    1 0.943
     6  H   0.998    C    2 0.948
     7  C   3.957    C    9 1.005    O    8 0.984    C    2 0.956    H   10 0.953
     8  O   1.935    C    7 0.984    H   11 0.864
     9  C   3.992    C    7 1.005    H   12 0.984    H   14 0.978    H   13 0.974
    10  H   0.999    C    7 0.953
    11  H   0.889    O    8 0.864
    12  H   0.998    C    9 0.984
    13  H   0.996    C    9 0.974
    14  H   0.997    C    9 0.978
    15  N   3.506    C    3 1.355    C   16 0.967    H   23 0.894    O    4 0.194
    16  C   3.960    N   15 0.967    C   17 0.963    C   19 0.957    H   24 0.947
    17  C   3.949    O   18 1.615    N   34 1.290    C   16 0.963
    18  O   1.967    C   17 1.615    N   34 0.196
    19  C   3.986    C   20 1.002    H   26 0.971    H   25 0.966    C   16 0.957
    20  C   3.994    C   21 1.013    C   19 1.002    C   22 0.998    H   27 0.966
    21  C   3.992    C   20 1.013    H   30 0.981    H   28 0.979    H   29 0.977
    22  C   3.993    C   20 0.998    H   33 0.987    H   32 0.985    H   31 0.984
    23  H   0.951    N   15 0.894
    24  H   0.992    C   16 0.947
    25  H   0.996    C   19 0.966
    26  H   0.998    C   19 0.971
    27  H   0.999    C   20 0.966
    28  H   0.996    C   21 0.979
    29  H   0.998    C   21 0.977
    30  H   0.997    C   21 0.981
    31  H   0.998    C   22 0.984
    32  H   0.997    C   22 0.985
    33  H   0.999    C   22 0.987
    34  N   3.466    C   17 1.290    C   35 0.978    H   43 0.904    O   18 0.196
    35  C   3.964    C   38 0.985    N   34 0.978    H   44 0.951    C   36 0.916    O   37 0.052
    36  C   3.952    O   37 1.635    N   51 1.320    C   35 0.916
    37  O   1.993    C   36 1.635    N   51 0.199    C   35 0.052
    38  C   3.987    C   39 0.999    C   35 0.985    H   45 0.970    H   46 0.964
    39  C   3.993    C   38 0.999    H   48 0.972    H   47 0.959    C   40 0.954    O   41 0.056
    40  C   3.945    O   41 1.599    N   42 1.358    C   39 0.954
    41  O   1.957    C   40 1.599    N   42 0.198    C   39 0.056
    42  N   3.425    C   40 1.358    H   49 0.904    H   50 0.891    O   41 0.198
    43  H   0.953    N   34 0.904
    44  H   0.995    C   35 0.951
    45  H   0.996    C   38 0.970
    46  H   0.993    C   38 0.964
    47  H   0.996    C   39 0.959
    48  H   0.997    C   39 0.972
    49  H   0.949    N   42 0.904
    50  H   0.948    N   42 0.891
    51  N   3.478    C   36 1.320    C   52 0.971    H   59 0.879    O   37 0.199
    52  C   3.964    C   53 0.976    N   51 0.971    H   60 0.953    C   55 0.951    O   54 0.056
    53  C   3.887    O   54 1.878    C   52 0.976    H  313 0.953
    54  O   2.068    C   53 1.878    C   52 0.056
    55  C   3.986    C   57 1.001    C   56 0.992    H   61 0.963    C   52 0.951
    56  C   3.994    C   58 1.015    C   55 0.992    H   62 0.977    H   63 0.974
    57  C   3.991    C   55 1.001    H   66 0.985    H   65 0.984    H   64 0.981
    58  C   3.993    C   56 1.015    H   68 0.986    H   67 0.986    H   69 0.985
    59  H   0.945    N   51 0.879
    60  H   0.992    C   52 0.953
    61  H   0.997    C   55 0.963
    62  H   0.997    C   56 0.977
    63  H   0.999    C   56 0.974
    64  H   0.995    C   57 0.981
    65  H   0.999    C   57 0.984
    66  H   0.997    C   57 0.985
    67  H   0.997    C   58 0.986
    68  H   0.998    C   58 0.986
    69  H   0.998    C   58 0.985
    70  O   1.797    H   72 0.900    H   71 0.890
    71  H   0.897    O   70 0.890
    72  H   0.901    O   70 0.900
    73  O   1.838    H   75 0.908    H   74 0.890
    74  H   0.892    O   73 0.890
    75  H   0.911    O   73 0.908
    76  O   1.788    H   77 0.878    H   78 0.870
    77  H   0.909    O   76 0.878
    78  H   0.902    O   76 0.870
    79  O   1.804    H   80 0.875    H   81 0.871
    80  H   0.907    O   79 0.875
    81  H   0.906    O   79 0.871
    82  O   1.817    H   84 0.905    H   83 0.850
    83  H   0.904    O   82 0.850
    84  H   0.911    O   82 0.905
    85  O   1.807    H   87 0.904    H   86 0.892
    86  H   0.894    O   85 0.892
    87  H   0.907    O   85 0.904
    88  O   1.804    H   89 0.900    H   90 0.878
    89  H   0.905    O   88 0.900
    90  H   0.896    O   88 0.878
    91  N   3.007    C   92 1.022    H   95 0.953    H  314 0.939
    92  C   3.982    N   91 1.022    H   96 0.957    C   97 0.946    C   93 0.944    O   94 0.050
    93  C   3.942    O   94 1.642    N  112 1.292    C   92 0.944
    94  O   1.952    C   93 1.642    N  112 0.198    C   92 0.050
    95  H   0.976    N   91 0.953
    96  H   0.997    C   92 0.957
    97  C   3.996    C   98 1.015    H  106 0.974    H  105 0.969    C   92 0.946
    98  C   3.989    C  100 1.420    C   99 1.381    C   97 1.015    C  103 0.094
    99  C   3.991    C  101 1.456    C   98 1.381    H  107 0.964    C  102 0.107
   100  C   3.990    C  102 1.445    C   98 1.420    H  108 0.968    C  101 0.103
   101  C   3.989    C   99 1.456    C  103 1.370    H  109 0.968    C  100 0.103
   102  C   3.987    C  100 1.445    C  103 1.375    H  110 0.966    C   99 0.107    O  104 0.058
   103  C   3.937    C  102 1.375    C  101 1.370    O  104 1.061    C   98 0.094
   104  O   2.071    C  103 1.061    H  111 0.858    C  102 0.058
   105  H   0.997    C   97 0.969
   106  H   0.998    C   97 0.974
   107  H   0.998    C   99 0.964
   108  H   0.998    C  100 0.968
   109  H   0.998    C  101 0.968
   110  H   0.998    C  102 0.966
   111  H   0.879    O  104 0.858
   112  N   3.454    C   93 1.292    C  113 0.987    H  123 0.881    O   94 0.198
   113  C   3.972    N  112 0.987    C  116 0.954    H  124 0.952    C  114 0.949
   114  C   3.948    O  115 1.587    N  132 1.317    C  113 0.949
   115  O   1.950    C  114 1.587    N  132 0.188
   116  C   3.990    C  117 1.013    H  125 0.968    H  126 0.966    C  113 0.954
   117  C   3.989    C  119 1.428    C  118 1.394    C  116 1.013    C  122 0.108
   118  C   3.991    C  120 1.463    C  117 1.394    H  127 0.968    C  121 0.110
   119  C   3.990    C  117 1.428    C  121 1.426    H  128 0.969    C  120 0.113
   120  C   3.992    C  118 1.463    C  122 1.419    H  129 0.971    C  119 0.113
   121  C   3.992    C  122 1.460    C  119 1.426    H  130 0.971    C  118 0.110
   122  C   3.992    C  121 1.460    C  120 1.419    H  131 0.971    C  117 0.108
   123  H   0.945    N  112 0.881
   124  H   0.994    C  113 0.952
   125  H   0.996    C  116 0.968
   126  H   0.996    C  116 0.966
   127  H   0.998    C  118 0.968
   128  H   0.999    C  119 0.969
   129  H   0.998    C  120 0.971
   130  H   0.999    C  121 0.971
   131  H   0.998    C  122 0.971
   132  N   3.487    C  114 1.317    C  133 0.989    H  136 0.913    O  115 0.188
   133  C   3.958    N  132 0.989    C  138 0.954    H  137 0.938    C  134 0.930
   134  C   3.955    O  135 1.591    N  146 1.354    C  133 0.930
   135  O   1.918    C  134 1.591    N  146 0.205
   136  H   0.958    N  132 0.913
   137  H   0.990    C  133 0.938
   138  C   3.960    C  140 1.005    O  139 0.995    C  133 0.954    H  141 0.952
   139  O   1.948    C  138 0.995    H  142 0.862
   140  C   3.990    C  138 1.005    H  143 0.982    H  145 0.979    H  144 0.974
   141  H   0.997    C  138 0.952
   142  H   0.887    O  139 0.862
   143  H   0.996    C  140 0.982
   144  H   0.996    C  140 0.974
   145  H   0.996    C  140 0.979
   146  N   3.506    C  134 1.354    C  147 0.965    H  154 0.886    O  135 0.205
   147  C   3.962    C  148 0.998    N  146 0.965    H  155 0.951    C  150 0.937    O  149 0.055
   148  C   3.906    O  149 1.882    C  147 0.998    H  315 0.950
   149  O   2.068    C  148 1.882    C  147 0.055
   150  C   3.982    C  151 1.003    H  157 0.969    H  156 0.965    C  147 0.937
   151  C   3.995    C  152 1.012    C  150 1.003    C  153 0.998    H  158 0.964
   152  C   3.994    C  151 1.012    H  159 0.984    H  161 0.984    H  160 0.980
   153  C   3.992    C  151 0.998    H  164 0.987    H  162 0.986    H  163 0.986
   154  H   0.944    N  146 0.886
   155  H   0.992    C  147 0.951
   156  H   0.995    C  150 0.965
   157  H   0.996    C  150 0.969
   158  H   0.999    C  151 0.964
   159  H   0.998    C  152 0.984
   160  H   0.999    C  152 0.980
   161  H   0.998    C  152 0.984
   162  H   0.997    C  153 0.986
   163  H   0.997    C  153 0.986
   164  H   0.998    C  153 0.987
   165  N   2.997    C  166 1.009    H  173 0.957    H  316 0.950
   166  C   3.984    N  165 1.009    C  167 0.978    H  174 0.961    C  169 0.952    O  168 0.056
   167  C   3.894    O  168 1.897    C  166 0.978    H  317 0.957
   168  O   2.031    C  167 1.897    C  166 0.056
   169  C   3.992    C  171 1.002    C  170 0.993    H  175 0.965    C  166 0.952
   170  C   3.995    C  172 1.015    C  169 0.993    H  176 0.977    H  177 0.969
   171  C   3.995    C  169 1.002    H  180 0.987    H  179 0.985    H  178 0.975
   172  C   3.994    C  170 1.015    H  181 0.986    H  182 0.984    H  183 0.979
   173  H   0.974    N  165 0.957
   174  H   0.997    C  166 0.961
   175  H   0.998    C  169 0.965
   176  H   0.998    C  170 0.977
   177  H   0.999    C  170 0.969
   178  H   0.998    C  171 0.975
   179  H   0.999    C  171 0.985
   180  H   0.998    C  171 0.987
   181  H   0.997    C  172 0.986
   182  H   0.998    C  172 0.984
   183  H   0.999    C  172 0.979
   184  N   3.004    C  185 1.018    H  195 0.951    H  318 0.950
   185  C   3.985    N  184 1.018    C  186 0.998    H  196 0.954    C  188 0.930
   186  C   3.894    O  187 1.863    C  185 0.998    H  319 0.955
   187  O   2.039    C  186 1.863
   188  C   3.989    C  189 0.998    H  198 0.974    H  197 0.967    C  185 0.930
   189  C   3.986    C  191 1.427    C  190 1.412    C  188 0.998    C  194 0.106
   190  C   3.992    C  192 1.445    C  189 1.412    H  199 0.968    C  193 0.115
   191  C   3.991    C  193 1.430    C  189 1.427    H  200 0.970    C  192 0.112
   192  C   3.990    C  190 1.445    C  194 1.437    H  201 0.965    C  191 0.112
   193  C   3.991    C  194 1.446    C  191 1.430    H  202 0.972    C  190 0.115
   194  C   3.991    C  193 1.446    C  192 1.437    H  203 0.970    C  189 0.106
   195  H   0.972    N  184 0.951
   196  H   0.998    C  185 0.954
   197  H   0.996    C  188 0.967
   198  H   0.997    C  188 0.974
   199  H   0.999    C  190 0.968
   200  H   0.999    C  191 0.970
   201  H   0.997    C  192 0.965
   202  H   0.998    C  193 0.972
   203  H   0.997    C  194 0.970
   204  N   3.015    C  205 1.036    H  320 0.954    H  215 0.952
   205  C   3.984    N  204 1.036    H  216 0.956    C  208 0.955    C  206 0.923    O  207 0.050
   206  C   3.945    O  207 1.591    N  224 1.344    C  205 0.923
   207  O   1.936    C  206 1.591    N  224 0.197    C  205 0.050
   208  C   3.992    C  209 1.004    H  217 0.971    H  218 0.961    C  205 0.955
   209  C   3.987    C  211 1.464    C  210 1.369    C  208 1.004    C  214 0.104
   210  C   3.992    C  212 1.476    C  209 1.369    H  219 0.967    C  213 0.124
   211  C   3.990    C  209 1.464    C  213 1.397    H  220 0.964    C  212 0.104
   212  C   3.994    C  210 1.476    C  214 1.419    H  221 0.969    C  211 0.104
   213  C   3.990    C  214 1.468    C  211 1.397    H  222 0.972    C  210 0.124
   214  C   3.992    C  213 1.468    C  212 1.419    H  223 0.970    C  209 0.104
   215  H   0.975    N  204 0.952
   216  H   0.998    C  205 0.956
   217  H   0.997    C  208 0.971
   218  H   0.996    C  208 0.961
   219  H   0.999    C  210 0.967
   220  H   0.999    C  211 0.964
   221  H   0.999    C  212 0.969
   222  H   0.998    C  213 0.972
   223  H   0.998    C  214 0.970
   224  N   3.488    C  206 1.344    C  225 0.968    H  228 0.883    O  207 0.197
   225  C   3.962    C  226 0.974    N  224 0.968    C  230 0.964    H  229 0.947    O  227 0.056
   226  C   3.899    O  227 1.895    C  225 0.974    H  321 0.957
   227  O   2.036    C  226 1.895    C  225 0.056
   228  H   0.941    N  224 0.883
   229  H   0.990    C  225 0.947
   230  C   3.982    C  231 1.004    H  238 0.972    H  237 0.968    C  225 0.964
   231  C   3.989    C  232 1.006    C  230 1.004    H  239 0.972    H  240 0.971
   232  C   3.944    C  231 1.006    N  233 0.973    H  242 0.966    H  241 0.945
   233  N   3.467    C  234 1.323    C  232 0.973    H  243 0.915    N  235 0.104    N  236 0.098
   234  C   3.976    N  235 1.331    N  233 1.323    N  236 1.285
   235  N   3.401    C  234 1.331    H  245 0.920    H  244 0.897    N  233 0.104    N  236 0.097
   236  N   3.361    C  234 1.285    H  246 0.921    H  247 0.918    N  233 0.098    N  235 0.097
   237  H   0.994    C  230 0.968
   238  H   0.994    C  230 0.972
   239  H   0.993    C  231 0.972
   240  H   0.997    C  231 0.971
   241  H   0.989    C  232 0.945
   242  H   0.992    C  232 0.966
   243  H   0.951    N  233 0.915
   244  H   0.935    N  235 0.897
   245  H   0.943    N  235 0.920
   246  H   0.942    N  236 0.921
   247  H   0.938    N  236 0.918
   248  N   2.992    C  249 1.008    H  322 0.956    H  256 0.923
   249  C   3.989    N  248 1.008    C  250 0.991    H  257 0.954    C  252 0.954
   250  C   3.884    O  251 1.866    C  249 0.991    H  323 0.955
   251  O   1.996    C  250 1.866
   252  C   3.987    H  259 0.965    C  253 0.963    C  249 0.954    H  258 0.944    O  254 0.051
   253  C   3.950    O  254 1.593    N  255 1.363    C  252 0.963
   254  O   1.957    C  253 1.593    N  255 0.194    C  252 0.051
   255  N   3.438    C  253 1.363    H  261 0.921    H  260 0.920    O  254 0.194
   256  H   0.964    N  248 0.923
   257  H   0.997    C  249 0.954
   258  H   0.992    C  252 0.944
   259  H   0.992    C  252 0.965
   260  H   0.949    N  255 0.920
   261  H   0.947    N  255 0.921
   262  N   2.984    C  263 1.022    H  324 0.951    H  266 0.930
   263  C   3.988    N  262 1.022    C  268 0.954    H  267 0.952    C  264 0.948
   264  C   3.945    O  265 1.562    N  276 1.351    C  263 0.948
   265  O   1.933    C  264 1.562    N  276 0.188
   266  H   0.966    N  262 0.930
   267  H   0.999    C  263 0.952
   268  C   3.955    C  270 1.005    O  269 0.986    C  263 0.954    H  271 0.953
   269  O   1.930    C  268 0.986    H  272 0.869
   270  C   3.989    C  268 1.005    H  275 0.977    H  273 0.976    H  274 0.971
   271  H   0.999    C  268 0.953
   272  H   0.888    O  269 0.869
   273  H   0.995    C  270 0.976
   274  H   0.996    C  270 0.971
   275  H   0.996    C  270 0.977
   276  N   3.506    C  264 1.351    C  277 0.966    H  284 0.921    O  265 0.188
   277  C   3.960    N  276 0.966    C  278 0.961    C  280 0.958    H  285 0.948
   278  C   3.953    O  279 1.643    N  295 1.276    C  277 0.961
   279  O   1.955    C  278 1.643    N  295 0.199
   280  C   3.987    C  281 1.003    H  287 0.972    H  286 0.970    C  277 0.958
   281  C   3.996    C  282 1.013    C  280 1.003    C  283 0.998    H  288 0.968
   282  C   3.994    C  281 1.013    H  291 0.984    H  289 0.984    H  290 0.978
   283  C   3.993    C  281 0.998    H  294 0.988    H  293 0.987    H  292 0.987
   284  H   0.956    N  276 0.921
   285  H   0.993    C  277 0.948
   286  H   0.996    C  280 0.970
   287  H   0.997    C  280 0.972
   288  H   0.999    C  281 0.968
   289  H   0.997    C  282 0.984
   290  H   0.998    C  282 0.978
   291  H   0.998    C  282 0.984
   292  H   0.997    C  283 0.987
   293  H   0.998    C  283 0.987
   294  H   0.999    C  283 0.988
   295  N   3.458    C  278 1.276    C  296 0.971    H  304 0.906    O  279 0.199
   296  C   3.961    C  299 0.974    N  295 0.971    C  297 0.956    H  305 0.955    O  298 0.056
   297  C   3.891    O  298 1.913    C  296 0.956    H  325 0.951
   298  O   2.087    C  297 1.913    C  296 0.056
   299  C   3.984    C  300 0.999    C  296 0.974    H  306 0.969    H  307 0.963
   300  C   3.991    C  299 0.999    H  309 0.972    H  308 0.956    C  301 0.954    O  302 0.056
   301  C   3.947    O  302 1.605    N  303 1.354    C  300 0.954
   302  O   1.965    C  301 1.605    N  303 0.199    C  300 0.056
   303  N   3.426    C  301 1.354    H  310 0.929    H  311 0.886    O  302 0.199
   304  H   0.954    N  295 0.906
   305  H   0.993    C  296 0.955
   306  H   0.996    C  299 0.969
   307  H   0.992    C  299 0.963
   308  H   0.993    C  300 0.956
   309  H   0.996    C  300 0.972
   310  H   0.951    N  303 0.929
   311  H   0.943    N  303 0.886
   312  H   0.969    N    1 0.952
   313  H   0.991    C   53 0.953
   314  H   0.966    N   91 0.939
   315  H   0.994    C  148 0.950
   316  H   0.969    N  165 0.950
   317  H   0.995    C  167 0.957
   318  H   0.967    N  184 0.950
   319  H   0.994    C  186 0.955
   320  H   0.968    N  204 0.954
   321  H   0.995    C  226 0.957
   322  H   0.967    N  248 0.956
   323  H   0.992    C  250 0.955
   324  H   0.968    N  262 0.951
   325  H   0.992    C  297 0.951
 
molecular dipole:
                 x           y           z       tot (Debye)
 q only:       18.538      50.005     -11.449
   full:       19.002      48.072     -11.278     134.480
molecular quadrupole (traceless):
                xx          xy          yy          xz          yz          zz
 q only:    -1000.036    1396.504    2402.157    -418.960    -969.406   -1402.121
  q+dip:     -865.542    1356.317    2202.717    -420.670    -946.332   -1337.175
   full:     -859.099    1359.872    2198.922    -421.627    -945.406   -1339.823
speedup  8.02
cpu  time for grad   19.92 s
wall time for grad    2.48 s

SCC energy    :    -491.2976830
rep           :       6.3006342
ES            :       1.2479434
AES           :      -0.0340355
AXC           :       0.1706702
disp          :      -0.3846850
XB            :       0.0000000
fix           :       0.0000000
Gborn         :       0.0000000
Gsasa         :       0.0000000
Ghb           :       0.0000000
Gshift        :       0.0000000
Gsolv         :      -0.2129652     -133.64
Etot ala COSMO:    -491.2976830
grad norm     :       0.6683003
total E       :    -484.9633846
atomizationE  :      88.4130480    55480.03
(atE without considering molecular charge,
 total energy contains solvation terms)
H-L gap (eV)  :          1.4634

------------------------------------------------------------------------
 * finished run on 2019/02/16 at 08:10:11.732     
------------------------------------------------------------------------
 total:
 * wall-time:     0 d,  0 h,  0 min,  2.705 sec
 *  cpu-time:     0 d,  0 h,  0 min, 22.256 sec
 * ratio c/w:     8.227 speedup
 SCF:
 * wall-time:     0 d,  0 h,  0 min,  2.593 sec
 *  cpu-time:     0 d,  0 h,  0 min, 21.230 sec
 * ratio c/w:     8.186 speedup

