      -----------------------------------------------------------      
     |                   =====================                   |     
     |                           x T B                           |     
     |                   =====================                   |     
     |                         S. Grimme                         |     
     |          Mulliken Center for Theoretical Chemistry        |     
     |                    University of Bonn                     |     
     |                 Version 6.0.1 (SAW181210)                 |     
      -----------------------------------------------------------      

   This program is distributed in the hope that it will be useful,
   but WITHOUT ANY WARRANTY; without even the implied warranty of
   MERCHANTABILITY or FITNESS FOR A PARTICULAR PURPOSE.
   
   FOR NON-COMMERCIAL, ACADEMIA USE ONLY.
   
   Cite this work as:
   S. Grimme, C. Bannwarth, P. Shushkov, J. Comput. Theory Chem., 2017,
   13, 1989-2009.
   C. Bannwarth, S. Ehlert and S. Grimme., ChemRxiv, 2018, preprint.
   http://doi.org/10.26434/chemrxiv.7246238.v1
   
   for sTDA-xTB:
   S. Grimme and C. Bannwarth, J. Chem. Phys., 2016, 145, 054103.
   
   in the mass-spec context:
   V. Asgeirsson, C. Bauer and S. Grimme, Chem. Sci., 2017, 8, 4879.
   
   if GBSA is used:
   P. Shushkov, F. März and S. Grimme, unpublished.
   
   for ANC optimizer:
   S. Grimme, unpublished.
   Rational Function algorithm used in ANCopt:
   F. Eckert, P. Pulay, H.-J. Werner, J. Comput. Chem., 1997, 18, 1473.
   
   with help from (in alphabetical order)
   C. Bannwarth, F. Bohle, G. Brandenburg, E. Caldeweyher, M. Checinski,
   S. Dohm, S. Ehlert, S. Ehrlich, F. März, H. Neugebauer, J. Pisarek,
   P. Pracht, P. Shushkov, and S. Spicher.
   
 * started run on 2019/02/16 at 08:10:51.595     
========================================================================
 # omp threads = 12
========================================================================
number of atoms            : 247
number of electrons        : 664
charge                     : 0
spin                       : .0
first test random number   : .0409

########################################################################
# WARNING! Please study the warnings concerning your input carefully
#  - Process number higher than OMP_NUM_THREADS, I hope you know what you are doing.
########################################################################

           ------------------------------------------------- 
          |                 G F N 2 - x T B                 |
          | Geometry, Frequencies, Noncovalent interactions |
          |            JCTC 2018 parametrisation            |
           ------------------------------------------------- 
 
      method parameters     
 k(s)        :  1.8500
 k(p)        :  2.2300
 k(d)        :  2.2300
 k(f)        :  2.0000
 kEN (H0ij)  : -2.0000
 D4 a1       :  0.5200
 D4 a2       :  5.0000
 D4 s6       :  1.0000
 D4 s8       :  2.7000
 D4 s9       :  5.0000
 alphaj      :  2.0000

 Solvent             : h2o
 Using internal parameter file: .param_gbsa2_h2o
 Gsolv ref. state (COSMO-RS): gsolv [1 M gas/solution]
 temperature (mdtemp)       :    298.150000000000     
 dielectric constant        :    80.2000000000000     
 rho                        :    1.00000000000000     
 mass                       :    18.0000000000000     
 surface tension            :    15.5689454083859     
 probe radius               :   0.975313790000000     
 vdW radii scaling          :    1.00000000000000     
 Gshift (Eh)                :   1.857443126794793E-003
 c1                         :    1.55243817000000     
 soset                      :   0.130326360000000     
 HB correction              :  T

            Z     q(EN)     CN     RAES       Cart. coordinates
     1  N   5.0   -0.19    3.27    1.97    28.50270    36.79420   -13.01248
     2  C   4.0    0.03    4.30    4.20    28.75703    39.50689   -12.50403
     3  C   4.0    0.14    3.42    3.09    28.72038    39.88637    -9.63530
     4  O   6.0   -0.30    1.28    1.80    27.67011    38.27397    -8.29565
     5  C   4.0   -0.03    4.38    4.34    26.46963    40.83792   -13.63299
     6  C   4.0   -0.02    3.60    3.16    26.20581    40.49288   -16.40098
     7  C   4.0   -0.05    3.47    3.10    24.81272    38.48158   -17.37939
     8  C   4.0   -0.04    3.48    3.10    27.45641    42.13383   -18.01887
     9  C   4.0   -0.04    3.39    3.08    24.76421    38.13007   -19.95288
    10  C   4.0   -0.04    3.37    3.07    27.47889    41.67711   -20.60829
    11  C   4.0   -0.04    3.38    3.07    26.12724    39.68342   -21.56303
    12  H   1.0    0.10    1.03    1.43    27.11296    35.86513   -12.07424
    13  H   1.0    0.05    1.04    1.44    30.52055    40.16488   -13.35172
    14  H   1.0    0.05    1.04    1.43    24.79690    40.09357   -12.66996
    15  H   1.0    0.05    1.03    1.43    26.58788    42.85417   -13.18042
    16  H   1.0    0.05    1.03    1.43    23.82873    37.21565   -16.12238
    17  H   1.0    0.05    1.03    1.43    28.51593    43.68741   -17.22822
    18  H   1.0    0.05    1.03    1.43    23.72473    36.55168   -20.71724
    19  H   1.0    0.05    1.03    1.43    28.55719    42.89048   -21.84482
    20  H   1.0    0.05    1.03    1.43    26.19493    39.28166   -23.56396
    21  N   5.0   -0.13    3.56    2.12    29.85008    41.82703    -8.51649
    22  C   4.0    0.05    4.58    4.64    29.81550    42.35633    -5.91945
    23  C   4.0    0.14    3.50    3.11    28.46056    44.84830    -5.48484
    24  O   6.0   -0.32    1.29    1.80    28.72342    46.68165    -6.94364
    25  H   1.0    0.09    1.09    1.44    30.54953    43.20232    -9.65788
    26  H   1.0    0.07    1.08    1.44    28.79125    40.83592    -4.95907
    27  C   4.0    0.06    4.33    4.25    32.54196    42.45929    -5.13280
    28  O   6.0   -0.25    2.13    1.84    33.31680    39.92614    -4.84885
    29  C   4.0   -0.06    4.17    3.95    32.87693    44.10912    -2.84653
    30  H   1.0    0.05    1.05    1.44    33.62163    43.30817    -6.70155
    31  H   1.0    0.12    1.03    1.43    35.10647    39.93618    -4.47811
    32  H   1.0    0.05    1.01    1.43    34.70041    43.79786    -1.97133
    33  H   1.0    0.06    1.02    1.43    32.77141    46.07409    -3.41524
    34  H   1.0    0.05    1.02    1.43    31.38736    43.76111    -1.48893
    35  N   5.0   -0.14    3.47    2.06    26.87106    44.79807    -3.59523
    36  C   4.0    0.03    4.45    4.46    25.44699    47.03118    -2.79129
    37  C   4.0    0.15    3.44    3.09    25.99985    47.76484    -0.14642
    38  O   6.0   -0.32    1.31    1.80    25.87528    46.26332     1.56432
    39  C   4.0   -0.04    4.41    4.39    22.58313    46.46172    -2.94021
    40  C   4.0   -0.02    4.20    4.01    20.95843    48.74167    -2.46642
    41  C   4.0   -0.07    4.17    3.93    21.49530    50.73018    -4.43398
    42  C   4.0   -0.07    4.11    3.83    18.13410    48.00011    -2.79307
    43  H   1.0    0.11    1.09    1.44    26.61793    43.20190    -2.56852
    44  H   1.0    0.06    1.07    1.44    25.95978    48.53209    -4.11160
    45  H   1.0    0.04    1.03    1.43    22.18174    45.70701    -4.81692
    46  H   1.0    0.05    1.03    1.43    22.18174    44.97867    -1.55777
    47  H   1.0    0.06    1.05    1.44    21.25846    49.48907    -0.56485
    48  H   1.0    0.05    1.00    1.43    20.23183    52.33389    -4.17517
    49  H   1.0    0.06    1.00    1.43    23.40493    51.47532    -4.31589
    50  H   1.0    0.04    1.00    1.43    21.18962    49.95848    -6.31334
    51  H   1.0    0.05    1.00    1.43    16.92400    49.62962    -2.51006
    52  H   1.0    0.05    1.00    1.43    17.84179    47.26805    -4.68797
    53  H   1.0    0.04    1.00    1.43    17.60525    46.54788    -1.43683
    54  N   5.0   -0.13    3.46    2.05    26.77711    50.13261     0.37903
    55  C   4.0    0.04    4.34    4.26    27.32027    51.18735     2.86750
    56  C   4.0    0.08    3.20    3.04    24.84794    52.21534     4.03810
    57  O   6.0   -0.27    1.13    1.80    23.62879    53.76233     2.83565
    58  C   4.0   -0.03    4.31    4.21    29.37148    53.17136     2.64255
    59  C   4.0   -0.03    4.28    4.16    30.12649    53.89782     5.28115
    60  C   4.0    0.16    3.24    3.04    32.49328    55.56319     5.14356
    61  O   6.0   -0.29    1.25    1.80    32.48441    57.54108     4.02600
    62  N   5.0   -0.18    3.20    1.96    34.47951    54.75421     6.37107
    63  H   1.0    0.10    1.08    1.44    26.88115    51.40187    -1.05914
    64  H   1.0    0.05    1.06    1.44    27.98562    49.61247     4.04166
    65  H   1.0    0.05    1.03    1.43    30.96060    52.37004     1.60355
    66  H   1.0    0.07    1.03    1.43    28.66171    54.81724     1.62356
    67  H   1.0    0.06    1.03    1.43    28.63346    55.01911     6.15464
    68  H   1.0    0.04    1.03    1.43    30.49634    52.24058     6.44463
    69  H   1.0    0.08    1.03    1.43    34.43616    53.20537     7.49902
    70  H   1.0    0.10    1.03    1.43    36.05136    55.85284     6.49528
    71  O   6.0   -0.32    1.96    1.82    38.33135    36.69245    -2.91656
    72  H   1.0    0.12    0.97    1.43    38.34270    38.39397    -2.27445
    73  H   1.0    0.13    0.97    1.43    36.58662    36.22203    -3.08194
    74  O   6.0   -0.31    1.93    1.82    31.69100    46.47715   -11.86285
    75  H   1.0    0.13    0.97    1.43    32.21365    48.02316   -12.66501
    76  H   1.0    0.14    0.98    1.43    30.59498    46.99955   -10.49277
    77  O   6.0   -0.31    1.96    1.82    36.69245    47.65118    -2.91656
    78  H   1.0    0.13    0.97    1.43    38.39397    47.63983    -2.27445
    79  H   1.0    0.13    0.97    1.43    36.22203    49.39591    -3.08194
    80  O   6.0   -0.30    1.92    1.82    38.33135    49.29008     2.91656
    81  H   1.0    0.12    0.97    1.43    38.34270    47.58856     2.27445
    82  H   1.0    0.13    0.97    1.43    36.58662    49.76050     3.08194
    83  O   6.0   -0.32    1.96    1.82    36.69245    38.33135     2.91656
    84  H   1.0    0.13    0.97    1.43    38.39397    38.34270     2.27445
    85  H   1.0    0.12    0.97    1.43    36.22203    36.58662     3.08194
    86  O   6.0   -0.31    1.95    1.82    35.84944    51.11443    -9.68605
    87  H   1.0    0.13    0.97    1.43    36.28312    49.38604   -10.03830
    88  H   1.0    0.13    0.97    1.43    37.34123    51.91573    -9.03479
    89  O   6.0   -0.30    1.95    1.82    34.86810    35.84944    -9.68605
    90  H   1.0    0.13    0.97    1.43    36.59649    36.28312   -10.03830
    91  H   1.0    0.14    0.97    1.43    34.06680    37.34123    -9.03479
    92  O   6.0   -0.31    1.95    1.82    31.66873    50.16622   -16.97862
    93  H   1.0    0.13    0.97    1.43    31.28232    48.54744   -17.69729
    94  H   1.0    0.14    0.97    1.43    33.48326    50.27194   -16.85871
    95  N   5.0   -0.19    3.22    1.96    32.02813    55.92043   -17.35437
    96  C   4.0    0.03    4.20    4.00    32.73959    56.36211   -14.75987
    97  C   4.0    0.08    3.24    3.04    35.56771    55.78014   -14.48529
    98  O   6.0   -0.27    1.12    1.80    36.63705    54.08148   -15.67344
    99  H   1.0    0.11    1.04    1.43    32.09052    54.08379   -17.90301
   100  H   1.0    0.04    1.05    1.44    32.44746    58.36377   -14.34509
   101  C   4.0   -0.03    4.33    4.25    31.37262    54.61387   -12.86084
   102  C   4.0   -0.02    3.52    3.12    29.11605    55.61882   -11.49058
   103  C   4.0   -0.04    3.48    3.11    28.93825    57.96922   -10.34328
   104  C   4.0   -0.04    3.53    3.13    27.08108    54.01048   -11.19166
   105  C   4.0   -0.03    3.45    3.09    26.73105    58.77956    -9.22932
   106  C   4.0   -0.04    3.44    3.09    24.87248    54.76456   -10.00843
   107  C   4.0    0.08    3.43    3.09    24.61425    57.21739    -9.13845
   108  O   6.0   -0.23    2.10    1.84    22.36859    58.17874    -8.26862
   109  H   1.0    0.06    1.05    1.44    30.83995    52.90172   -13.87635
   110  H   1.0    0.05    1.05    1.44    32.77794    54.06277   -11.44553
   111  H   1.0    0.05    1.03    1.43    30.56259    59.19573   -10.31437
   112  H   1.0    0.05    1.05    1.44    27.29047    52.13989   -11.96249
   113  H   1.0    0.07    1.03    1.43    26.63864    60.59106    -8.29887
   114  H   1.0    0.05    1.03    1.43    23.30849    53.47331    -9.78494
   115  H   1.0    0.12    1.03    1.43    21.36649    56.90014    -7.44552
   116  N   5.0   -0.19    3.33    1.99    44.15550    29.85008    -8.51649
   117  C   4.0    0.04    4.36    4.31    43.62620    29.81550    -5.91945
   118  C   4.0    0.07    3.29    3.05    41.13423    28.46056    -5.48484
   119  O   6.0   -0.29    1.17    1.80    39.30088    28.72342    -6.94364
   120  H   1.0    0.10    1.03    1.43    42.78021    30.54953    -9.65788
   121  H   1.0    0.05    1.06    1.44    45.14662    28.79125    -4.95907
   122  C   4.0    0.06    4.33    4.26    43.52324    32.54196    -5.13280
   123  O   6.0   -0.25    2.13    1.84    46.05639    33.31680    -4.84885
   124  C   4.0   -0.06    4.16    3.92    41.87341    32.87693    -2.84653
   125  H   1.0    0.05    1.05    1.44    42.67436    33.62163    -6.70155
   126  H   1.0    0.12    1.03    1.43    46.04635    35.10647    -4.47811
   127  H   1.0    0.06    1.01    1.43    42.18467    34.70041    -1.97133
   128  H   1.0    0.06    1.02    1.43    39.90844    32.77141    -3.41524
   129  H   1.0    0.04    1.01    1.43    42.22142    31.38736    -1.48893
   130  N   5.0   -0.18    3.21    1.96    35.84992    26.77711     0.37903
   131  C   4.0    0.03    4.26    4.13    34.79518    27.32027     2.86750
   132  C   4.0    0.09    3.20    3.04    33.76719    24.84794     4.03810
   133  O   6.0   -0.26    1.13    1.80    32.22020    23.62879     2.83565
   134  C   4.0   -0.03    4.31    4.21    32.81117    29.37148     2.64255
   135  C   4.0   -0.04    4.28    4.16    32.08471    30.12649     5.28115
   136  C   4.0    0.16    3.24    3.04    30.41934    32.49328     5.14356
   137  O   6.0   -0.30    1.25    1.80    28.44145    32.48441     4.02600
   138  N   5.0   -0.18    3.21    1.96    31.22832    34.47951     6.37107
   139  H   1.0    0.12    1.04    1.43    34.58066    26.88115    -1.05914
   140  H   1.0    0.04    1.05    1.44    36.37007    27.98562     4.04166
   141  H   1.0    0.05    1.03    1.43    33.61249    30.96060     1.60355
   142  H   1.0    0.07    1.03    1.43    31.16529    28.66171     1.62356
   143  H   1.0    0.06    1.03    1.43    30.96342    28.63346     6.15464
   144  H   1.0    0.04    1.03    1.43    33.74195    30.49634     6.44463
   145  H   1.0    0.08    1.03    1.43    32.77716    34.43616     7.49902
   146  H   1.0    0.12    1.06    1.44    30.12969    36.05136     6.49528
   147  N   5.0   -0.19    3.33    1.99    29.85008    44.15550     8.51649
   148  C   4.0    0.04    4.48    4.51    29.81550    43.62620     5.91945
   149  C   4.0    0.14    3.50    3.11    28.46056    41.13423     5.48484
   150  O   6.0   -0.31    1.28    1.80    28.72342    39.30088     6.94364
   151  H   1.0    0.10    1.03    1.43    30.54953    42.78021     9.65788
   152  H   1.0    0.06    1.06    1.44    28.79125    45.14662     4.95907
   153  C   4.0    0.06    4.34    4.26    32.54196    43.52324     5.13280
   154  O   6.0   -0.26    2.13    1.84    33.31680    46.05639     4.84885
   155  C   4.0   -0.06    4.17    3.95    32.87693    41.87341     2.84653
   156  H   1.0    0.05    1.05    1.44    33.62163    42.67436     6.70155
   157  H   1.0    0.12    1.03    1.43    35.10647    46.04635     4.47811
   158  H   1.0    0.05    1.01    1.43    34.70041    42.18467     1.97133
   159  H   1.0    0.06    1.02    1.43    32.77141    39.90844     3.41524
   160  H   1.0    0.05    1.02    1.43    31.38736    42.22142     1.48893
   161  N   5.0   -0.14    3.47    2.06    26.87106    41.18446     3.59523
   162  C   4.0    0.03    4.45    4.46    25.44699    38.95135     2.79129
   163  C   4.0    0.15    3.44    3.09    25.99985    38.21770     0.14642
   164  O   6.0   -0.31    1.31    1.80    25.87528    39.71921    -1.56432
   165  C   4.0   -0.04    4.41    4.39    22.58313    39.52081     2.94021
   166  C   4.0   -0.02    4.20    4.01    20.95843    37.24086     2.46642
   167  C   4.0   -0.06    4.17    3.93    21.49530    35.25235     4.43398
   168  C   4.0   -0.07    4.11    3.83    18.13410    37.98242     2.79307
   169  H   1.0    0.11    1.09    1.44    26.61793    42.78063     2.56852
   170  H   1.0    0.06    1.07    1.44    25.95978    37.45044     4.11160
   171  H   1.0    0.05    1.03    1.43    22.18174    40.27552     4.81692
   172  H   1.0    0.05    1.03    1.43    22.18174    41.00386     1.55777
   173  H   1.0    0.06    1.05    1.44    21.25846    36.49346     0.56485
   174  H   1.0    0.05    1.00    1.43    20.23183    33.64864     4.17517
   175  H   1.0    0.06    1.00    1.43    23.40493    34.50721     4.31589
   176  H   1.0    0.05    1.00    1.43    21.18962    36.02405     6.31334
   177  H   1.0    0.05    1.00    1.43    16.92400    36.35291     2.51006
   178  H   1.0    0.04    1.00    1.43    17.84179    38.71448     4.68797
   179  H   1.0    0.04    1.00    1.43    17.60525    39.43465     1.43683
   180  N   5.0   -0.13    3.46    2.05    26.77711    35.84992    -0.37903
   181  C   4.0    0.04    4.34    4.26    27.32027    34.79518    -2.86750
   182  C   4.0    0.09    3.20    3.04    24.84794    33.76719    -4.03810
   183  O   6.0   -0.28    1.13    1.80    23.62879    32.22020    -2.83565
   184  C   4.0   -0.03    4.31    4.21    29.37148    32.81117    -2.64255
   185  C   4.0   -0.03    4.28    4.16    30.12649    32.08471    -5.28115
   186  C   4.0    0.16    3.24    3.04    32.49328    30.41934    -5.14356
   187  O   6.0   -0.29    1.25    1.80    32.48441    28.44145    -4.02600
   188  N   5.0   -0.18    3.21    1.96    34.47951    31.22832    -6.37107
   189  H   1.0    0.10    1.08    1.44    26.88115    34.58066     1.05914
   190  H   1.0    0.07    1.06    1.44    27.98562    36.37007    -4.04166
   191  H   1.0    0.05    1.03    1.43    30.96060    33.61249    -1.60355
   192  H   1.0    0.07    1.03    1.43    28.66171    31.16529    -1.62356
   193  H   1.0    0.06    1.03    1.43    28.63346    30.96342    -6.15464
   194  H   1.0    0.06    1.03    1.43    30.49634    33.74195    -6.44463
   195  H   1.0    0.11    1.05    1.44    34.43616    32.77716    -7.49902
   196  H   1.0    0.13    1.06    1.44    36.05136    30.12969    -6.49528
   197  N   5.0   -0.21    3.19    1.95    15.32144    39.99464   -14.48287
   198  C   4.0    0.03    4.20    3.99    16.76298    42.04858   -13.45843
   199  C   4.0    0.08    3.26    3.05    15.59107    44.58495   -13.87661
   200  O   6.0   -0.28    1.11    1.80    15.24760    46.19239   -12.20298
   201  C   4.0   -0.04    4.27    4.14    19.50686    42.07258   -14.56151
   202  C   4.0   -0.01    3.51    3.12    20.99704    44.50451   -13.95690
   203  C   4.0   -0.03    3.51    3.12    21.96495    45.06361   -11.58018
   204  C   4.0   -0.04    3.44    3.09    21.45440    46.26485   -15.83483
   205  C   4.0   -0.04    3.34    3.06    23.24060    47.23795   -10.87986
   206  C   4.0   -0.03    3.39    3.08    22.69934    48.51787   -15.19797
   207  C   4.0   -0.03    3.39    3.08    23.48799    49.03466   -12.74539
   208  H   1.0    0.08    1.02    1.43    16.06707    38.95330   -15.91828
   209  H   1.0    0.05    1.05    1.44    16.87956    41.84230   -11.39205
   210  H   1.0    0.04    1.02    1.43    20.49410    40.42292   -13.83590
   211  H   1.0    0.04    1.03    1.43    19.33679    41.91867   -16.60773
   212  H   1.0    0.05    1.03    1.43    21.68045    43.63259   -10.13204
   213  H   1.0    0.05    1.03    1.43    20.78163    45.98106   -17.73719
   214  H   1.0    0.06    1.03    1.43    23.98523    47.47858    -9.00688
   215  H   1.0    0.05    1.03    1.43    22.94963    49.93583   -16.63950
   216  H   1.0    0.05    1.07    1.44    24.35227    50.82662   -12.37136
   217  N   5.0   -0.18    3.21    1.96    35.84992    59.20543    -0.37903
   218  C   4.0    0.03    4.26    4.13    34.79518    58.66226    -2.86750
   219  C   4.0    0.08    3.20    3.04    33.76719    61.13459    -4.03810
   220  O   6.0   -0.26    1.13    1.80    32.22020    62.35375    -2.83565
   221  C   4.0   -0.03    4.31    4.21    32.81117    56.61105    -2.64255
   222  C   4.0   -0.04    4.29    4.17    32.08471    55.85604    -5.28115
   223  C   4.0    0.16    3.24    3.04    30.41934    53.48925    -5.14356
   224  O   6.0   -0.30    1.25    1.80    28.44145    53.49812    -4.02600
   225  N   5.0   -0.19    3.21    1.96    31.22832    51.50302    -6.37107
   226  H   1.0    0.12    1.04    1.43    34.58066    59.10138     1.05914
   227  H   1.0    0.04    1.05    1.44    36.37007    57.99691    -4.04166
   228  H   1.0    0.05    1.03    1.43    33.61249    55.02193    -1.60355
   229  H   1.0    0.07    1.03    1.43    31.16529    57.32083    -1.62356
   230  H   1.0    0.05    1.04    1.43    30.96342    57.34907    -6.15464
   231  H   1.0    0.04    1.03    1.43    33.74195    55.48619    -6.44463
   232  H   1.0    0.10    1.05    1.44    32.77716    51.54637    -7.49902
   233  H   1.0    0.12    1.06    1.44    30.12969    49.93118    -6.49528
   234  H   1.0    0.09    1.09    1.44    28.18104    36.55407   -14.66518
   235  H   1.0    0.06    1.04    1.43    24.28503    51.61169     5.73804
   236  H   1.0    0.09    1.07    1.44    30.43212    56.45247   -17.60384
   237  H   1.0    0.05    1.05    1.44    36.63131    56.79855   -13.30095
   238  H   1.0    0.10    1.10    1.44    45.53083    30.80874    -8.80286
   239  H   1.0    0.05    1.04    1.44    40.92753    27.31781    -3.99404
   240  H   1.0    0.09    1.07    1.44    37.08661    27.89158     0.03100
   241  H   1.0    0.05    1.04    1.43    34.37084    24.28503     5.73804
   242  H   1.0    0.10    1.10    1.44    30.80874    45.53083     8.80286
   243  H   1.0    0.06    1.04    1.43    24.28503    34.37084    -5.73804
   244  H   1.0    0.10    1.08    1.44    15.00012    38.85982   -13.25751
   245  H   1.0    0.06    1.05    1.44    15.01950    45.08815   -15.60611
   246  H   1.0    0.10    1.07    1.44    37.08661    58.09095    -0.03100
   247  H   1.0    0.05    1.04    1.43    34.37084    61.69750    -5.73804

  Z AO/shell   Hii/eV     exponent
  1     Wed Apr 25 08:07:45 CEST 2018   EN: 2.200 GM2: 0.406  GM3: 0.0800  RAES: 1.40
     1s    -10.707211    1.230000
  6     Wed Apr 25 08:07:45 CEST 2018   EN: 2.550 GM2: 0.538  GM3: 0.1500  RAES: 3.00
     2s    -13.970922    2.096432
     2p    -10.063292    1.800000
  7     Wed Apr 25 08:07:45 CEST 2018   EN: 3.040 GM2: 0.461  GM3:-0.0640  RAES: 1.90
     2s    -16.686243    2.339881
     2p    -12.523956    2.014332
  8     Wed Apr 25 08:07:45 CEST 2018   EN: 3.440 GM2: 0.452  GM3:-0.0517  RAES: 1.80
     2s    -20.229985    2.439742
     2p    -15.503117    2.137023
 no old-style atom pair restraining (fixing) potential

molecular fragmentation (1/2 indicates fragments):
111111111111111111111111111111111111111111111111111111111111111111111122
222222222222222222222222222222222222222222222222222222222222222222222222
222222222222222222222222222222222222222222222222222222222222222222222222
2222222222222222211222222222222
# atoms in fragment 1/2:    72   175
 fragment masses (1/2) :      491.59     1166.33
CMA distance (Bohr)    :   4.323
constraining FC (au)   :  0.0500
           ------------------------------------------------- 
          |        Self-Consistent Charge Iterations        |
           ------------------------------------------------- 

 Ncao       : 592
 Nao        : 592
 Nshell     : 362
 Nel        : 664
 T(el)      :   500.0
 intcut     :    35.0
 scfconv/Eh :  0.100E-06
   qconv/e  :  0.100E-04
 intneglect :  0.100E-08
 broydamp   :      0.400
 iter      E             dE          RMSdq      gap      omega  full diag
   1   -383.5085157 -0.383509E+03  0.486E+00    3.31       0.0  T
   2   -384.4086212 -0.900105E+00  0.232E+00    1.85       1.0  T
   3   -384.4656871 -0.570660E-01  0.125E+00    2.05       1.0  T
   4   -384.5374340 -0.717469E-01  0.286E-01    1.56       1.0  T
   5   -384.5405795 -0.314544E-02  0.126E-01    1.70       1.0  T
   6   -384.5417334 -0.115394E-02  0.446E-02    1.69       1.0  T
   7   -384.5418694 -0.135945E-03  0.213E-02    1.68       1.0  T
   8   -384.5418895 -0.201252E-04  0.100E-02    1.67       1.0  T
   9   -384.5418944 -0.488736E-05  0.351E-03    1.67       1.8  T
  10   -384.5418954 -0.975858E-06  0.141E-03    1.67       4.5  T
  11   -384.5418954 -0.721651E-07  0.671E-04    1.67       9.5  T
  12   -384.5418954 -0.205708E-07  0.331E-04    1.67      19.2  T
  13   -384.5418955 -0.718620E-08  0.133E-04    1.67      47.8  T
  14   -384.5418955 -0.795978E-09  0.774E-05    1.67      82.2  T
  15   -384.5418955 -0.369596E-09  0.321E-05    1.67     198.2  T
speedup  9.32
cpu  time for SCC   14.07 s
wall time for SCC    1.51 s

   *** convergence criteria satisfied after 15 iterations ***

          eigenvalues
 #    :         320        321        322        323        324        325        326        327
 occ. :        2.000      2.000      2.000      2.000      2.000      2.000      2.000      2.000
 eps  :       -10.899    -10.871    -10.849    -10.784    -10.587    -10.407    -10.186     -9.856
 #    :         328        329        330        331        332        333        334        335
 occ. :        2.000      2.000      2.000      2.000      2.000      0.000      0.000      0.000
 eps  :        -9.846     -9.839     -9.804     -9.794     -9.773     -8.099     -8.028     -7.963
 #    :         336        337        338        339        340        341        342        343
 occ. :        0.000      0.000      0.000      0.000      0.000      0.000      0.000      0.000
 eps  :        -7.881     -7.693     -7.685     -7.640     -6.539     -6.308     -6.274     -6.188


   #   Z            q   n(s)   n(p)   n(d)      C6AA      α(0)
   1   7 N     -0.382  1.314  4.068  0.000    29.874     8.118
   2   6 C      0.036  1.060  2.904  0.000    19.986     6.368
   3   6 C      0.263  1.051  2.687  0.000    22.574     7.781
   4   8 O     -0.507  1.752  4.756  0.000    23.944     6.561
   5   6 C     -0.063  1.049  3.014  0.000    21.697     6.629
   6   6 C      0.012  1.079  2.908  0.000    27.733     8.638
   7   6 C     -0.043  1.078  2.965  0.000    29.058     8.840
   8   6 C     -0.043  1.083  2.959  0.000    29.058     8.840
   9   6 C     -0.034  1.079  2.955  0.000    28.848     8.808
  10   6 C     -0.033  1.080  2.953  0.000    28.821     8.804
  11   6 C     -0.035  1.078  2.958  0.000    28.879     8.813
  12   1 H      0.155  0.845  0.000  0.000     1.368     1.832
  13   1 H      0.055  0.945  0.000  0.000     2.254     2.348
  14   1 H      0.032  0.968  0.000  0.000     2.554     2.499
  15   1 H      0.038  0.962  0.000  0.000     2.475     2.460
  16   1 H      0.031  0.969  0.000  0.000     2.576     2.510
  17   1 H      0.040  0.960  0.000  0.000     2.453     2.449
  18   1 H      0.033  0.967  0.000  0.000     2.549     2.497
  19   1 H      0.039  0.961  0.000  0.000     2.458     2.452
  20   1 H      0.035  0.965  0.000  0.000     2.519     2.482
  21   7 N     -0.166  1.232  3.934  0.000    24.587     7.364
  22   6 C      0.019  1.052  2.929  0.000    20.243     6.404
  23   6 C      0.264  1.044  2.692  0.000    22.556     7.778
  24   8 O     -0.500  1.738  4.762  0.000    23.784     6.539
  25   1 H      0.218  0.782  0.000  0.000     1.019     1.581
  26   1 H      0.092  0.908  0.000  0.000     1.857     2.131
  27   6 C      0.113  1.041  2.846  0.000    18.792     6.182
  28   8 O     -0.480  1.730  4.750  0.000    22.464     6.398
  29   6 C     -0.149  1.045  3.104  0.000    23.434     6.902
  30   1 H      0.042  0.958  0.000  0.000     2.423     2.434
  31   1 H      0.332  0.668  0.000  0.000     0.633     1.249
  32   1 H      0.086  0.914  0.000  0.000     1.921     2.167
  33   1 H      0.072  0.928  0.000  0.000     2.066     2.248
  34   1 H      0.040  0.960  0.000  0.000     2.444     2.445
  35   7 N     -0.158  1.247  3.911  0.000    24.416     7.339
  36   6 C      0.017  1.056  2.927  0.000    20.287     6.413
  37   6 C      0.277  1.037  2.686  0.000    22.318     7.736
  38   8 O     -0.481  1.723  4.758  0.000    23.375     6.482
  39   6 C     -0.064  1.056  3.008  0.000    21.715     6.631
  40   6 C     -0.007  1.050  2.957  0.000    20.665     6.466
  41   6 C     -0.115  1.038  3.078  0.000    22.744     6.797
  42   6 C     -0.118  1.046  3.072  0.000    22.816     6.810
  43   1 H      0.225  0.775  0.000  0.000     0.986     1.555
  44   1 H      0.084  0.916  0.000  0.000     1.936     2.176
  45   1 H      0.056  0.944  0.000  0.000     2.251     2.346
  46   1 H      0.049  0.951  0.000  0.000     2.333     2.389
  47   1 H      0.024  0.976  0.000  0.000     2.674     2.557
  48   1 H      0.040  0.960  0.000  0.000     2.453     2.449
  49   1 H      0.040  0.960  0.000  0.000     2.446     2.446
  50   1 H      0.047  0.953  0.000  0.000     2.359     2.402
  51   1 H      0.047  0.953  0.000  0.000     2.362     2.403
  52   1 H      0.047  0.953  0.000  0.000     2.363     2.404
  53   1 H      0.038  0.962  0.000  0.000     2.480     2.462
  54   7 N     -0.175  1.247  3.928  0.000    24.781     7.393
  55   6 C      0.027  1.063  2.909  0.000    20.121     6.387
  56   6 C      0.200  1.088  2.712  0.000    23.743     7.980
  57   8 O     -0.347  1.757  4.590  0.000    20.653     6.093
  58   6 C     -0.055  1.046  3.009  0.000    21.546     6.607
  59   6 C     -0.105  1.057  3.048  0.000    22.489     6.749
  60   6 C      0.296  1.027  2.677  0.000    21.973     7.675
  61   8 O     -0.498  1.741  4.757  0.000    23.743     6.533
  62   7 N     -0.277  1.263  4.013  0.000    27.150     7.739
  63   1 H      0.215  0.785  0.000  0.000     1.035     1.594
  64   1 H      0.084  0.916  0.000  0.000     1.938     2.177
  65   1 H      0.068  0.932  0.000  0.000     2.111     2.272
  66   1 H      0.070  0.930  0.000  0.000     2.081     2.256
  67   1 H      0.064  0.936  0.000  0.000     2.155     2.296
  68   1 H      0.068  0.932  0.000  0.000     2.109     2.271
  69   1 H      0.230  0.770  0.000  0.000     0.967     1.540
  70   1 H      0.234  0.766  0.000  0.000     0.949     1.526
  71   8 O     -0.613  1.758  4.855  0.000    25.500     6.815
  72   1 H      0.313  0.687  0.000  0.000     0.684     1.299
  73   1 H      0.304  0.696  0.000  0.000     0.710     1.323
  74   8 O     -0.624  1.752  4.872  0.000    25.770     6.852
  75   1 H      0.311  0.689  0.000  0.000     0.689     1.304
  76   1 H      0.307  0.693  0.000  0.000     0.701     1.315
  77   8 O     -0.623  1.759  4.864  0.000    25.737     6.847
  78   1 H      0.322  0.678  0.000  0.000     0.658     1.274
  79   1 H      0.302  0.698  0.000  0.000     0.715     1.328
  80   8 O     -0.629  1.766  4.864  0.000    25.897     6.868
  81   1 H      0.318  0.682  0.000  0.000     0.669     1.285
  82   1 H      0.313  0.687  0.000  0.000     0.682     1.297
  83   8 O     -0.625  1.762  4.863  0.000    25.790     6.854
  84   1 H      0.323  0.677  0.000  0.000     0.656     1.272
  85   1 H      0.303  0.697  0.000  0.000     0.711     1.325
  86   8 O     -0.631  1.755  4.876  0.000    25.947     6.875
  87   1 H      0.330  0.670  0.000  0.000     0.638     1.255
  88   1 H      0.323  0.677  0.000  0.000     0.656     1.272
  89   8 O     -0.627  1.761  4.867  0.000    25.853     6.862
  90   1 H      0.339  0.661  0.000  0.000     0.614     1.231
  91   1 H      0.306  0.694  0.000  0.000     0.704     1.318
  92   8 O     -0.623  1.754  4.869  0.000    25.750     6.849
  93   1 H      0.319  0.681  0.000  0.000     0.668     1.283
  94   1 H      0.317  0.683  0.000  0.000     0.672     1.288
  95   7 N     -0.392  1.324  4.068  0.000    30.160     8.156
  96   6 C      0.041  1.056  2.903  0.000    19.904     6.356
  97   6 C      0.196  1.093  2.711  0.000    23.820     7.993
  98   8 O     -0.377  1.757  4.620  0.000    21.221     6.176
  99   1 H      0.180  0.820  0.000  0.000     1.213     1.725
 100   1 H      0.054  0.946  0.000  0.000     2.275     2.359
 101   6 C     -0.087  1.060  3.027  0.000    22.153     6.699
 102   6 C      0.001  1.077  2.922  0.000    27.992     8.678
 103   6 C     -0.046  1.077  2.969  0.000    29.138     8.853
 104   6 C     -0.050  1.084  2.966  0.000    29.245     8.869
 105   6 C     -0.058  1.075  2.982  0.000    29.431     8.897
 106   6 C     -0.069  1.078  2.991  0.000    29.717     8.940
 107   6 C      0.143  1.045  2.813  0.000    24.890     8.176
 108   8 O     -0.449  1.720  4.729  0.000    21.819     6.306
 109   1 H      0.087  0.913  0.000  0.000     1.907     2.160
 110   1 H      0.067  0.933  0.000  0.000     2.119     2.276
 111   1 H      0.038  0.962  0.000  0.000     2.476     2.461
 112   1 H      0.059  0.941  0.000  0.000     2.211     2.325
 113   1 H      0.038  0.962  0.000  0.000     2.481     2.463
 114   1 H      0.042  0.958  0.000  0.000     2.418     2.432
 115   1 H      0.335  0.665  0.000  0.000     0.624     1.241
 116   7 N     -0.389  1.307  4.082  0.000    30.071     8.144
 117   6 C      0.043  1.045  2.912  0.000    19.861     6.346
 118   6 C      0.192  1.094  2.713  0.000    23.890     8.005
 119   8 O     -0.375  1.759  4.616  0.000    21.185     6.171
 120   1 H      0.168  0.832  0.000  0.000     1.286     1.776
 121   1 H      0.069  0.931  0.000  0.000     2.092     2.262
 122   6 C      0.123  1.043  2.834  0.000    18.634     6.156
 123   8 O     -0.494  1.734  4.760  0.000    22.758     6.440
 124   6 C     -0.146  1.044  3.103  0.000    23.376     6.893
 125   1 H      0.026  0.974  0.000  0.000     2.638     2.540
 126   1 H      0.342  0.658  0.000  0.000     0.606     1.223
 127   1 H      0.078  0.922  0.000  0.000     2.004     2.214
 128   1 H      0.065  0.935  0.000  0.000     2.146     2.291
 129   1 H      0.042  0.958  0.000  0.000     2.422     2.434
 130   7 N     -0.389  1.320  4.069  0.000    30.062     8.143
 131   6 C      0.035  1.060  2.904  0.000    19.987     6.367
 132   6 C      0.200  1.090  2.710  0.000    23.743     7.980
 133   8 O     -0.360  1.761  4.599  0.000    20.903     6.130
 134   6 C     -0.051  1.048  3.003  0.000    21.476     6.596
 135   6 C     -0.104  1.060  3.044  0.000    22.467     6.746
 136   6 C      0.294  1.029  2.676  0.000    22.007     7.681
 137   8 O     -0.511  1.737  4.774  0.000    24.017     6.571
 138   7 N     -0.281  1.267  4.014  0.000    27.256     7.754
 139   1 H      0.174  0.826  0.000  0.000     1.247     1.750
 140   1 H      0.051  0.949  0.000  0.000     2.309     2.376
 141   1 H      0.048  0.952  0.000  0.000     2.348     2.396
 142   1 H      0.054  0.946  0.000  0.000     2.268     2.355
 143   1 H      0.056  0.944  0.000  0.000     2.250     2.346
 144   1 H      0.059  0.941  0.000  0.000     2.208     2.324
 145   1 H      0.222  0.778  0.000  0.000     1.000     1.566
 146   1 H      0.231  0.769  0.000  0.000     0.960     1.535
 147   7 N     -0.395  1.307  4.088  0.000    30.231     8.166
 148   6 C      0.032  1.049  2.919  0.000    20.028     6.371
 149   6 C      0.268  1.045  2.687  0.000    22.478     7.764
 150   8 O     -0.513  1.748  4.765  0.000    24.077     6.579
 151   1 H      0.161  0.839  0.000  0.000     1.327     1.805
 152   1 H      0.057  0.943  0.000  0.000     2.229     2.335
 153   6 C      0.114  1.043  2.842  0.000    18.767     6.178
 154   8 O     -0.483  1.725  4.758  0.000    22.531     6.408
 155   6 C     -0.145  1.046  3.099  0.000    23.350     6.889
 156   1 H      0.018  0.982  0.000  0.000     2.763     2.599
 157   1 H      0.327  0.673  0.000  0.000     0.645     1.262
 158   1 H      0.077  0.923  0.000  0.000     2.010     2.217
 159   1 H      0.058  0.942  0.000  0.000     2.219     2.329
 160   1 H      0.037  0.963  0.000  0.000     2.491     2.468
 161   7 N     -0.166  1.249  3.917  0.000    24.589     7.365
 162   6 C      0.018  1.055  2.927  0.000    20.283     6.413
 163   6 C      0.278  1.038  2.684  0.000    22.297     7.733
 164   8 O     -0.485  1.720  4.765  0.000    23.448     6.492
 165   6 C     -0.067  1.058  3.010  0.000    21.775     6.640
 166   6 C     -0.006  1.050  2.956  0.000    20.652     6.464
 167   6 C     -0.118  1.040  3.078  0.000    22.800     6.805
 168   6 C     -0.119  1.047  3.073  0.000    22.837     6.813
 169   1 H      0.224  0.776  0.000  0.000     0.994     1.562
 170   1 H      0.079  0.921  0.000  0.000     1.988     2.205
 171   1 H      0.061  0.939  0.000  0.000     2.190     2.314
 172   1 H      0.049  0.951  0.000  0.000     2.333     2.389
 173   1 H      0.020  0.980  0.000  0.000     2.737     2.587
 174   1 H      0.043  0.957  0.000  0.000     2.409     2.427
 175   1 H      0.036  0.964  0.000  0.000     2.496     2.471
 176   1 H      0.049  0.951  0.000  0.000     2.337     2.390
 177   1 H      0.046  0.954  0.000  0.000     2.365     2.405
 178   1 H      0.049  0.951  0.000  0.000     2.330     2.387
 179   1 H      0.038  0.962  0.000  0.000     2.474     2.460
 180   7 N     -0.176  1.249  3.927  0.000    24.820     7.399
 181   6 C      0.028  1.063  2.909  0.000    20.114     6.386
 182   6 C      0.206  1.088  2.706  0.000    23.631     7.961
 183   8 O     -0.353  1.754  4.599  0.000    20.770     6.110
 184   6 C     -0.051  1.046  3.005  0.000    21.475     6.596
 185   6 C     -0.102  1.057  3.046  0.000    22.441     6.742
 186   6 C      0.295  1.028  2.677  0.000    21.992     7.679
 187   8 O     -0.512  1.739  4.773  0.000    24.051     6.575
 188   7 N     -0.283  1.268  4.015  0.000    27.298     7.760
 189   1 H      0.210  0.790  0.000  0.000     1.057     1.611
 190   1 H      0.095  0.905  0.000  0.000     1.829     2.115
 191   1 H      0.062  0.938  0.000  0.000     2.179     2.308
 192   1 H      0.064  0.936  0.000  0.000     2.157     2.297
 193   1 H      0.053  0.947  0.000  0.000     2.277     2.360
 194   1 H      0.073  0.927  0.000  0.000     2.057     2.243
 195   1 H      0.235  0.765  0.000  0.000     0.945     1.523
 196   1 H      0.227  0.773  0.000  0.000     0.978     1.549
 197   7 N     -0.387  1.309  4.078  0.000    30.019     8.137
 198   6 C      0.049  1.048  2.904  0.000    19.779     6.336
 199   6 C      0.204  1.088  2.709  0.000    23.674     7.969
 200   8 O     -0.396  1.770  4.626  0.000    21.599     6.231
 201   6 C     -0.073  1.066  3.007  0.000    21.894     6.662
 202   6 C      0.003  1.088  2.909  0.000    27.959     8.673
 203   6 C     -0.035  1.078  2.957  0.000    28.869     8.813
 204   6 C     -0.042  1.086  2.956  0.000    29.053     8.839
 205   6 C     -0.033  1.077  2.956  0.000    28.828     8.804
 206   6 C     -0.037  1.085  2.952  0.000    28.925     8.820
 207   6 C     -0.046  1.083  2.963  0.000    29.154     8.855
 208   1 H      0.175  0.825  0.000  0.000     1.242     1.746
 209   1 H      0.046  0.954  0.000  0.000     2.369     2.407
 210   1 H      0.056  0.944  0.000  0.000     2.250     2.345
 211   1 H      0.058  0.942  0.000  0.000     2.224     2.332
 212   1 H      0.013  0.987  0.000  0.000     2.835     2.633
 213   1 H      0.033  0.967  0.000  0.000     2.543     2.494
 214   1 H      0.042  0.958  0.000  0.000     2.417     2.431
 215   1 H      0.040  0.960  0.000  0.000     2.445     2.445
 216   1 H      0.062  0.938  0.000  0.000     2.173     2.305
 217   7 N     -0.397  1.325  4.072  0.000    30.294     8.174
 218   6 C      0.036  1.060  2.904  0.000    19.979     6.365
 219   6 C      0.201  1.089  2.710  0.000    23.727     7.977
 220   8 O     -0.361  1.761  4.600  0.000    20.926     6.133
 221   6 C     -0.051  1.048  3.003  0.000    21.480     6.597
 222   6 C     -0.105  1.059  3.046  0.000    22.491     6.750
 223   6 C      0.291  1.031  2.677  0.000    22.057     7.690
 224   8 O     -0.516  1.736  4.780  0.000    24.136     6.587
 225   7 N     -0.284  1.268  4.016  0.000    27.329     7.764
 226   1 H      0.173  0.827  0.000  0.000     1.252     1.753
 227   1 H      0.049  0.951  0.000  0.000     2.327     2.386
 228   1 H      0.048  0.952  0.000  0.000     2.348     2.396
 229   1 H      0.053  0.947  0.000  0.000     2.283     2.363
 230   1 H      0.054  0.946  0.000  0.000     2.274     2.358
 231   1 H      0.057  0.943  0.000  0.000     2.229     2.335
 232   1 H      0.229  0.771  0.000  0.000     0.971     1.544
 233   1 H      0.224  0.776  0.000  0.000     0.990     1.559
 234   1 H      0.178  0.822  0.000  0.000     1.226     1.734
 235   1 H      0.085  0.915  0.000  0.000     1.927     2.171
 236   1 H      0.180  0.820  0.000  0.000     1.216     1.727
 237   1 H      0.067  0.933  0.000  0.000     2.121     2.277
 238   1 H      0.192  0.808  0.000  0.000     1.148     1.678
 239   1 H      0.075  0.925  0.000  0.000     2.033     2.230
 240   1 H      0.178  0.822  0.000  0.000     1.227     1.735
 241   1 H      0.075  0.925  0.000  0.000     2.036     2.231
 242   1 H      0.192  0.808  0.000  0.000     1.147     1.678
 243   1 H      0.079  0.921  0.000  0.000     1.989     2.205
 244   1 H      0.189  0.811  0.000  0.000     1.165     1.691
 245   1 H      0.073  0.927  0.000  0.000     2.050     2.239
 246   1 H      0.188  0.812  0.000  0.000     1.168     1.693
 247   1 H      0.072  0.928  0.000  0.000     2.066     2.248

 Mol. C6AA /au·bohr⁶  :     538667.222157
 Mol. C8AA /au·bohr⁸  :   11851728.378646
 Mol. α(0) /au        :       1103.893310

 
 Wiberg/Mayer (AO) data. WBOs > 0.1 written file <wbo>
 largest (>0.05) Wiberg bond orders for each atom
           total WBO             WBO to atom ...
     1  N   2.992    C    2 1.018    H   12 0.956    H  234 0.949
     2  C   3.986    N    1 1.018    H   13 0.957    C    5 0.952    C    3 0.952
     3  C   3.944    O    4 1.611    N   21 1.304    C    2 0.952
     4  O   1.926    C    3 1.611    N   21 0.188
     5  C   3.995    C    6 1.017    H   14 0.968    H   15 0.966    C    2 0.952
     6  C   3.989    C    8 1.423    C    7 1.391    C    5 1.017    C   11 0.108
     7  C   3.991    C    9 1.460    C    6 1.391    H   16 0.967    C   10 0.108
     8  C   3.990    C   10 1.429    C    6 1.423    H   17 0.969    C    9 0.113
     9  C   3.992    C    7 1.460    C   11 1.421    H   18 0.971    C    8 0.113
    10  C   3.992    C   11 1.457    C    8 1.429    H   19 0.970    C    7 0.108
    11  C   3.992    C   10 1.457    C    9 1.421    H   20 0.971    C    6 0.108
    12  H   0.976    N    1 0.956
    13  H   0.997    C    2 0.957
    14  H   0.999    C    5 0.968
    15  H   0.998    C    5 0.966
    16  H   0.999    C    7 0.967
    17  H   0.998    C    8 0.969
    18  H   0.999    C    9 0.971
    19  H   0.998    C   10 0.970
    20  H   0.998    C   11 0.971
    21  N   3.476    C    3 1.304    C   22 0.995    H   25 0.904    O    4 0.188
    22  C   3.964    N   21 0.995    C   27 0.957    H   26 0.939    C   23 0.934
    23  C   3.949    O   24 1.558    N   35 1.365    C   22 0.934
    24  O   1.931    C   23 1.558    N   35 0.194
    25  H   0.952    N   21 0.904
    26  H   0.991    C   22 0.939
    27  C   3.955    C   29 1.002    O   28 0.985    C   22 0.957    H   30 0.954
    28  O   1.934    C   27 0.985    H   31 0.866
    29  C   3.988    C   27 1.002    H   33 0.974    H   32 0.972    H   34 0.966
    30  H   0.998    C   27 0.954
    31  H   0.890    O   28 0.866
    32  H   0.992    C   29 0.972
    33  H   0.995    C   29 0.974
    34  H   0.998    C   29 0.966
    35  N   3.515    C   23 1.365    C   36 0.968    H   43 0.891    O   24 0.194
    36  C   3.962    N   35 0.968    C   37 0.962    C   39 0.957    H   44 0.948
    37  C   3.951    O   38 1.617    N   54 1.292    C   36 0.962
    38  O   1.968    C   37 1.617    N   54 0.197
    39  C   3.988    C   40 1.003    H   46 0.971    H   45 0.969    C   36 0.957
    40  C   3.996    C   41 1.013    C   39 1.003    C   42 0.998    H   47 0.968
    41  C   3.995    C   40 1.013    H   48 0.985    H   50 0.982    H   49 0.978
    42  C   3.993    C   40 0.998    H   53 0.988    H   51 0.987    H   52 0.987
    43  H   0.949    N   35 0.891
    44  H   0.993    C   36 0.948
    45  H   0.996    C   39 0.969
    46  H   0.998    C   39 0.971
    47  H   0.999    C   40 0.968
    48  H   0.998    C   41 0.985
    49  H   0.998    C   41 0.978
    50  H   0.998    C   41 0.982
    51  H   0.997    C   42 0.987
    52  H   0.998    C   42 0.987
    53  H   0.999    C   42 0.988
    54  N   3.473    C   37 1.292    C   55 0.973    H   63 0.907    O   38 0.197
    55  C   3.963    C   58 0.975    N   54 0.973    C   56 0.953    H   64 0.953    O   57 0.057
    56  C   3.895    O   57 1.926    C   55 0.953    H  235 0.952
    57  O   2.060    C   56 1.926    C   55 0.057
    58  C   3.987    C   59 1.000    C   55 0.975    H   66 0.969    H   65 0.968
    59  C   3.993    C   58 1.000    H   68 0.971    H   67 0.960    C   60 0.950    O   61 0.057
    60  C   3.947    O   61 1.638    N   62 1.329    C   59 0.950
    61  O   1.958    C   60 1.638    N   62 0.201    C   59 0.057
    62  N   3.409    C   60 1.329    H   69 0.925    H   70 0.920    O   61 0.201
    63  H   0.954    N   54 0.907
    64  H   0.993    C   55 0.953
    65  H   0.995    C   58 0.968
    66  H   0.995    C   58 0.969
    67  H   0.996    C   59 0.960
    68  H   0.995    C   59 0.971
    69  H   0.947    N   62 0.925
    70  H   0.945    N   62 0.920
    71  O   1.818    H   73 0.903    H   72 0.895
    72  H   0.902    O   71 0.895
    73  H   0.908    O   71 0.903
    74  O   1.809    H   75 0.894    H   76 0.888
    75  H   0.903    O   74 0.894
    76  H   0.906    O   74 0.888
    77  O   1.810    H   79 0.907    H   78 0.892
    78  H   0.896    O   77 0.892
    79  H   0.909    O   77 0.907
    80  O   1.805    H   82 0.899    H   81 0.895
    81  H   0.899    O   80 0.895
    82  H   0.902    O   80 0.899
    83  O   1.808    H   85 0.906    H   84 0.891
    84  H   0.896    O   83 0.891
    85  H   0.908    O   83 0.906
    86  O   1.828    H   88 0.894    H   87 0.888
    87  H   0.891    O   86 0.888
    88  H   0.896    O   86 0.894
    89  O   1.827    H   91 0.903    H   90 0.884
    90  H   0.885    O   89 0.884
    91  H   0.906    O   89 0.903
    92  O   1.824    H   94 0.895    H   93 0.893
    93  H   0.898    O   92 0.893
    94  H   0.900    O   92 0.895
    95  N   3.002    C   96 1.031    H  236 0.954    H   99 0.938
    96  C   3.987    N   95 1.031    C   97 0.981    H  100 0.955    C  101 0.935    O   98 0.058
    97  C   3.898    O   98 1.885    C   96 0.981    H  237 0.956
    98  O   2.027    C   97 1.885    C   96 0.058
    99  H   0.967    N   95 0.938
   100  H   0.997    C   96 0.955
   101  C   3.988    C  102 1.015    H  109 0.955    H  110 0.942    C   96 0.935
   102  C   3.988    C  104 1.410    C  103 1.391    C  101 1.015    C  107 0.096
   103  C   3.991    C  105 1.463    C  102 1.391    H  111 0.966    C  106 0.105
   104  C   3.987    C  106 1.442    C  102 1.410    H  112 0.946    C  105 0.107
   105  C   3.989    C  103 1.463    C  107 1.363    H  113 0.969    C  104 0.107
   106  C   3.987    C  104 1.442    C  107 1.386    H  114 0.960    C  103 0.105    O  108 0.054
   107  C   3.934    C  106 1.386    C  105 1.363    O  108 1.050    C  102 0.096
   108  O   2.056    C  107 1.050    H  115 0.866    C  106 0.054
   109  H   0.992    C  101 0.955
   110  H   0.994    C  101 0.942
   111  H   0.998    C  103 0.966
   112  H   0.996    C  104 0.946
   113  H   0.998    C  105 0.969
   114  H   0.998    C  106 0.960
   115  H   0.887    O  108 0.866
   116  N   2.992    C  117 1.023    H  120 0.949    H  238 0.946
   117  C   3.987    N  116 1.023    C  118 0.990    H  121 0.949    C  122 0.937    O  119 0.053
   118  C   3.895    O  119 1.858    C  117 0.990    H  239 0.957
   119  O   2.039    C  118 1.858    C  117 0.053
   120  H   0.972    N  116 0.949
   121  H   0.995    C  117 0.949
   122  C   3.956    C  124 1.001    O  123 0.985    H  125 0.956    C  117 0.937
   123  O   1.927    C  122 0.985    H  126 0.866
   124  C   3.991    C  122 1.001    H  129 0.985    H  127 0.977    H  128 0.974
   125  H   0.999    C  122 0.956
   126  H   0.883    O  123 0.866
   127  H   0.994    C  124 0.977
   128  H   0.996    C  124 0.974
   129  H   0.998    C  124 0.985
   130  N   2.991    C  131 1.008    H  240 0.956    H  139 0.941
   131  C   3.987    N  130 1.008    C  134 0.971    H  140 0.966    C  132 0.962    O  133 0.057
   132  C   3.891    O  133 1.920    C  131 0.962    H  241 0.954
   133  O   2.050    C  132 1.920    C  131 0.057
   134  C   3.994    C  135 0.999    H  142 0.971    C  131 0.971    H  141 0.970
   135  C   3.994    C  134 0.999    H  144 0.972    H  143 0.961    C  136 0.953    O  137 0.056
   136  C   3.945    O  137 1.620    N  138 1.340    C  135 0.953
   137  O   1.945    C  136 1.620    N  138 0.200    C  135 0.056
   138  N   3.413    C  136 1.340    H  145 0.928    H  146 0.890    O  137 0.200
   139  H   0.970    N  130 0.941
   140  H   0.997    C  131 0.966
   141  H   0.998    C  134 0.970
   142  H   0.997    C  134 0.971
   143  H   0.997    C  135 0.961
   144  H   0.996    C  135 0.972
   145  H   0.951    N  138 0.928
   146  H   0.946    N  138 0.890
   147  N   2.988    C  148 1.025    H  151 0.951    H  242 0.946
   148  C   3.985    N  147 1.025    C  153 0.958    H  152 0.947    C  149 0.943
   149  C   3.943    O  150 1.571    N  161 1.350    C  148 0.943
   150  O   1.920    C  149 1.571    N  161 0.191
   151  H   0.974    N  147 0.951
   152  H   0.997    C  148 0.947
   153  C   3.958    C  155 1.003    O  154 0.983    C  148 0.958    H  156 0.957
   154  O   1.933    C  153 0.983    H  157 0.870
   155  C   3.991    C  153 1.003    H  159 0.976    H  158 0.974    H  160 0.967
   156  H   1.000    C  153 0.957
   157  H   0.893    O  154 0.870
   158  H   0.994    C  155 0.974
   159  H   0.997    C  155 0.976
   160  H   0.999    C  155 0.967
   161  N   3.500    C  149 1.350    C  162 0.970    H  169 0.892    O  150 0.191
   162  C   3.965    N  161 0.970    C  163 0.963    C  165 0.957    H  170 0.949
   163  C   3.950    O  164 1.612    N  180 1.294    C  162 0.963
   164  O   1.962    C  163 1.612    N  180 0.195
   165  C   3.988    C  166 1.003    H  172 0.972    H  171 0.970    C  162 0.957
   166  C   3.996    C  167 1.013    C  165 1.003    C  168 0.998    H  173 0.968
   167  C   3.995    C  166 1.013    H  174 0.985    H  176 0.984    H  175 0.979
   168  C   3.993    C  166 0.998    H  179 0.988    H  177 0.987    H  178 0.986
   169  H   0.950    N  161 0.892
   170  H   0.993    C  162 0.949
   171  H   0.996    C  165 0.970
   172  H   0.998    C  165 0.972
   173  H   1.000    C  166 0.968
   174  H   0.998    C  167 0.985
   175  H   0.999    C  167 0.979
   176  H   0.998    C  167 0.984
   177  H   0.997    C  168 0.987
   178  H   0.997    C  168 0.986
   179  H   0.999    C  168 0.988
   180  N   3.475    C  163 1.294    C  181 0.972    H  189 0.909    O  164 0.195
   181  C   3.960    C  184 0.975    N  180 0.972    C  182 0.955    H  190 0.949    O  183 0.056
   182  C   3.893    O  183 1.920    C  181 0.955    H  243 0.953
   183  O   2.054    C  182 1.920    C  181 0.056
   184  C   3.989    C  185 1.000    C  181 0.975    H  192 0.970    H  191 0.969
   185  C   3.991    C  184 1.000    H  194 0.970    H  193 0.961    C  186 0.949    O  187 0.056
   186  C   3.948    O  187 1.621    N  188 1.349    C  185 0.949
   187  O   1.942    C  186 1.621    N  188 0.204    C  185 0.056
   188  N   3.418    C  186 1.349    H  195 0.899    H  196 0.895    O  187 0.204
   189  H   0.956    N  180 0.909
   190  H   0.991    C  181 0.949
   191  H   0.996    C  184 0.969
   192  H   0.996    C  184 0.970
   193  H   0.997    C  185 0.961
   194  H   0.995    C  185 0.970
   195  H   0.945    N  188 0.899
   196  H   0.948    N  188 0.895
   197  N   3.003    C  198 1.019    H  244 0.952    H  208 0.949
   198  C   3.986    N  197 1.019    C  199 0.995    H  209 0.961    C  201 0.931
   199  C   3.892    O  200 1.875    C  198 0.995    H  245 0.955
   200  O   2.009    C  199 1.875
   201  C   3.990    C  202 0.998    H  211 0.974    H  210 0.965    C  198 0.931
   202  C   3.986    C  204 1.427    C  203 1.411    C  201 0.998    C  207 0.106
   203  C   3.992    C  205 1.444    C  202 1.411    H  212 0.970    C  206 0.115
   204  C   3.990    C  206 1.430    C  202 1.427    H  213 0.969    C  205 0.112
   205  C   3.991    C  203 1.444    C  207 1.436    H  214 0.966    C  204 0.112
   206  C   3.991    C  207 1.444    C  204 1.430    H  215 0.972    C  203 0.115
   207  C   3.988    C  206 1.444    C  205 1.436    H  216 0.943    C  202 0.106
   208  H   0.969    N  197 0.949
   209  H   0.998    C  198 0.961
   210  H   0.997    C  201 0.965
   211  H   0.996    C  201 0.974
   212  H   1.000    C  203 0.970
   213  H   0.999    C  204 0.969
   214  H   0.998    C  205 0.966
   215  H   0.998    C  206 0.972
   216  H   0.995    C  207 0.943
   217  N   2.989    C  218 1.008    H  246 0.952    H  226 0.942
   218  C   3.987    N  217 1.008    C  221 0.971    H  227 0.966    C  219 0.962    O  220 0.057
   219  C   3.891    O  220 1.919    C  218 0.962    H  247 0.954
   220  O   2.049    C  219 1.919    C  218 0.057
   221  C   3.994    C  222 0.999    H  229 0.972    C  218 0.971    H  228 0.970
   222  C   3.994    C  221 0.999    H  231 0.972    H  230 0.954    C  223 0.952    O  224 0.056
   223  C   3.947    O  224 1.614    N  225 1.348    C  222 0.952
   224  O   1.939    C  223 1.614    N  225 0.200    C  222 0.056
   225  N   3.416    C  223 1.348    H  232 0.900    H  233 0.894    O  224 0.200
   226  H   0.970    N  217 0.942
   227  H   0.997    C  218 0.966
   228  H   0.997    C  221 0.970
   229  H   0.997    C  221 0.972
   230  H   0.997    C  222 0.954
   231  H   0.997    C  222 0.972
   232  H   0.948    N  225 0.900
   233  H   0.949    N  225 0.894
   234  H   0.968    N    1 0.949
   235  H   0.993    C   56 0.952
   236  H   0.968    N   95 0.954
   237  H   0.995    C   97 0.956
   238  H   0.963    N  116 0.946
   239  H   0.994    C  118 0.957
   240  H   0.968    N  130 0.956
   241  H   0.994    C  132 0.954
   242  H   0.962    N  147 0.946
   243  H   0.994    C  182 0.953
   244  H   0.964    N  197 0.952
   245  H   0.995    C  199 0.955
   246  H   0.965    N  217 0.952
   247  H   0.995    C  219 0.954
 
molecular dipole:
                 x           y           z       tot (Debye)
 q only:        8.935       1.971       0.163
   full:        9.172       2.191       0.448      23.997
molecular quadrupole (traceless):
                xx          xy          yy          xz          yz          zz
 q only:      556.620     698.909    -335.047      10.416       7.486    -221.573
  q+dip:      574.865     744.456    -361.399      35.721      19.165    -213.466
   full:      579.748     741.244    -363.528      34.737      23.254    -216.220
speedup  9.27
cpu  time for grad   15.01 s
wall time for grad    1.62 s

SCC energy    :    -384.5535020
rep           :       4.8284555
ES            :       1.1006757
AES           :      -0.0069558
AXC           :       0.1215433
disp          :      -0.2784959
XB            :       0.0000000
fix           :       0.0000000
Gborn         :       0.0000000
Gsasa         :       0.0000000
Ghb           :       0.0000000
Gshift        :       0.0000000
Gsolv         :      -0.1731661     -108.66
Etot ala COSMO:    -384.5535020
grad norm     :       0.6486838
total E       :    -379.7028699
atomizationE  :      66.6056818    41795.70
(atE without considering molecular charge,
 total energy contains solvation terms)
H-L gap (eV)  :          1.6731

------------------------------------------------------------------------
 * finished run on 2019/02/16 at 08:10:53.391     
------------------------------------------------------------------------
 total:
 * wall-time:     0 d,  0 h,  0 min,  1.794 sec
 *  cpu-time:     0 d,  0 h,  0 min, 16.866 sec
 * ratio c/w:     9.401 speedup
 SCF:
 * wall-time:     0 d,  0 h,  0 min,  1.703 sec
 *  cpu-time:     0 d,  0 h,  0 min, 16.022 sec
 * ratio c/w:     9.407 speedup

