      -----------------------------------------------------------      
     |                   =====================                   |     
     |                           x T B                           |     
     |                   =====================                   |     
     |                         S. Grimme                         |     
     |          Mulliken Center for Theoretical Chemistry        |     
     |                    University of Bonn                     |     
     |                 Version 6.0.1 (SAW181210)                 |     
      -----------------------------------------------------------      

   This program is distributed in the hope that it will be useful,
   but WITHOUT ANY WARRANTY; without even the implied warranty of
   MERCHANTABILITY or FITNESS FOR A PARTICULAR PURPOSE.
   
   FOR NON-COMMERCIAL, ACADEMIA USE ONLY.
   
   Cite this work as:
   S. Grimme, C. Bannwarth, P. Shushkov, J. Comput. Theory Chem., 2017,
   13, 1989-2009.
   C. Bannwarth, S. Ehlert and S. Grimme., ChemRxiv, 2018, preprint.
   http://doi.org/10.26434/chemrxiv.7246238.v1
   
   for sTDA-xTB:
   S. Grimme and C. Bannwarth, J. Chem. Phys., 2016, 145, 054103.
   
   in the mass-spec context:
   V. Asgeirsson, C. Bauer and S. Grimme, Chem. Sci., 2017, 8, 4879.
   
   if GBSA is used:
   P. Shushkov, F. März and S. Grimme, unpublished.
   
   for ANC optimizer:
   S. Grimme, unpublished.
   Rational Function algorithm used in ANCopt:
   F. Eckert, P. Pulay, H.-J. Werner, J. Comput. Chem., 1997, 18, 1473.
   
   with help from (in alphabetical order)
   C. Bannwarth, F. Bohle, G. Brandenburg, E. Caldeweyher, M. Checinski,
   S. Dohm, S. Ehlert, S. Ehrlich, F. März, H. Neugebauer, J. Pisarek,
   P. Pracht, P. Shushkov, and S. Spicher.
   
 * started run on 2019/02/16 at 08:10:16.578     
========================================================================
 # omp threads = 12
========================================================================
number of atoms            : 54
number of electrons        : 158
charge                     : -2
spin                       : .0
first test random number   : .5670

########################################################################
# WARNING! Please study the warnings concerning your input carefully
#  - Process number higher than OMP_NUM_THREADS, I hope you know what you are doing.
########################################################################

           ------------------------------------------------- 
          |                 G F N 2 - x T B                 |
          | Geometry, Frequencies, Noncovalent interactions |
          |            JCTC 2018 parametrisation            |
           ------------------------------------------------- 
 
      method parameters     
 k(s)        :  1.8500
 k(p)        :  2.2300
 k(d)        :  2.2300
 k(f)        :  2.0000
 kEN (H0ij)  : -2.0000
 D4 a1       :  0.5200
 D4 a2       :  5.0000
 D4 s6       :  1.0000
 D4 s8       :  2.7000
 D4 s9       :  5.0000
 alphaj      :  2.0000

 Solvent             : h2o
 Using internal parameter file: .param_gbsa2_h2o
 Gsolv ref. state (COSMO-RS): gsolv [1 M gas/solution]
 temperature (mdtemp)       :    298.150000000000     
 dielectric constant        :    80.2000000000000     
 rho                        :    1.00000000000000     
 mass                       :    18.0000000000000     
 surface tension            :    15.5689454083859     
 probe radius               :   0.975313790000000     
 vdW radii scaling          :    1.00000000000000     
 Gshift (Eh)                :   1.857443126794793E-003
 c1                         :    1.55243817000000     
 soset                      :   0.130326360000000     
 HB correction              :  T

            Z     q(EN)     CN     RAES       Cart. coordinates
     1  N   5.0   -0.24    3.20    1.96    14.15246    47.43322    22.40238
     2  C   4.0    0.03    4.20    4.01    11.57592    46.51015    22.15409
     3  C   4.0    0.05    3.24    3.04    11.08072    46.34724    19.31605
     4  O   6.0   -0.34    1.17    1.80    10.10124    44.49524    18.28096
     5  C   4.0   -0.06    4.22    4.05     9.54037    48.16263    23.34443
     6  C   4.0   -0.06    4.16    3.92     9.76497    48.64897    26.16663
     7  C   4.0    0.22    3.08    3.02     9.72709    46.39680    28.05098
     8  O   6.0   -0.37    1.16    1.80     8.15385    46.56277    29.81955
     9  O   6.0   -0.32    1.16    1.80    11.38376    44.71421    27.82462
    10  H   1.0    0.05    1.02    1.43    14.43478    48.82758    23.71969
    11  H   1.0    0.06    1.05    1.44    11.43808    44.59586    22.94999
    12  H   1.0    0.01    1.03    1.43     9.51926    49.98778    22.38884
    13  H   1.0    0.03    1.03    1.43     7.71856    47.25994    22.96671
    14  H   1.0    0.02    1.03    1.43    11.53807    49.59603    26.58716
    15  H   1.0    0.01    1.03    1.43     8.21686    49.88487    26.73341
    16  N   5.0   -0.22    3.18    1.95    14.57373    40.95809    16.21441
    17  C   4.0    0.01    4.24    4.08    13.41511    38.44311    16.69527
    18  C   4.0    0.14    3.37    3.07    10.98252    37.99912    15.04011
    19  O   6.0   -0.34    1.22    1.80    10.55781    35.92201    14.08236
    20  H   1.0    0.07    1.02    1.43    14.81231    42.13174    17.70689
    21  H   1.0    0.02    1.05    1.44    14.75294    36.95513    16.20480
    22  C   4.0   -0.04    4.28    4.16    12.61943    38.23373    19.46819
    23  C   4.0   -0.05    4.15    3.89    14.74801    37.99397    21.36860
    24  C   4.0    0.23    3.08    3.02    13.68588    37.96598    24.15398
    25  O   6.0   -0.32    1.18    1.80    11.45251    38.62890    24.50806
    26  O   6.0   -0.36    1.16    1.80    15.23161    37.30190    25.78866
    27  H   1.0    0.06    1.03    1.43    11.48910    39.89182    19.96190
    28  H   1.0    0.04    1.03    1.43    11.35835    36.60240    19.65424
    29  H   1.0    0.02    1.02    1.43    15.82355    36.25963    21.08266
    30  H   1.0    0.03    1.02    1.43    16.01239    39.61526    21.23389
    31  N   5.0   -0.15    3.44    2.04     9.55538    39.98930    14.60403
    32  C   4.0    0.03    4.33    4.25     7.27057    39.86784    12.95269
    33  C   4.0    0.06    3.27    3.05     8.06928    39.06056    10.32286
    34  O   6.0   -0.36    1.10    1.80     6.99116    37.39087     9.05143
    35  C   4.0   -0.05    4.38    4.35     5.89736    42.36269    13.08243
    36  C   4.0   -0.05    4.12    3.85     3.82980    42.39675    11.14630
    37  S   6.0   -0.14    2.53    3.10     2.60825    45.50043    10.76450
    38  C   4.0   -0.11    3.88    3.43     5.00489    46.97884     8.77059
    39  H   1.0    0.10    1.08    1.44     9.77149    41.58822    15.63928
    40  H   1.0    0.04    1.05    1.44     6.05319    38.35267    13.69478
    41  H   1.0    0.04    1.03    1.43     5.15605    42.62536    14.98714
    42  H   1.0    0.03    1.04    1.44     7.26718    43.86328    12.68942
    43  H   1.0    0.03    1.09    1.44     4.50636    41.75292     9.30527
    44  H   1.0    0.01    1.08    1.44     2.25844    41.18284    11.69572
    45  H   1.0   -0.00    1.05    1.44     4.42994    48.93349     8.60954
    46  H   1.0    0.02    1.03    1.43     6.85640    46.82208     9.63967
    47  H   1.0    0.00    1.04    1.43     5.00528    46.06770     6.93271
    48  O   6.0   -0.34    1.92    1.82     5.96757    41.62099    20.01168
    49  H   1.0    0.15    1.01    1.43     7.51014    42.48069    19.53495
    50  H   1.0    0.12    0.97    1.43     6.08280    41.32097    21.79421
    51  H   1.0    0.08    1.07    1.44    15.17478    46.14962    22.84937
    52  H   1.0    0.03    1.05    1.44    11.55535    47.78856    18.18982
    53  H   1.0    0.06    1.06    1.44    16.12965    40.75054    15.55974
    54  H   1.0    0.03    1.05    1.44     9.55430    39.88272     9.49231

  Z AO/shell   Hii/eV     exponent
  1     Wed Apr 25 08:07:45 CEST 2018   EN: 2.200 GM2: 0.406  GM3: 0.0800  RAES: 1.40
     1s    -10.707211    1.230000
  6     Wed Apr 25 08:07:45 CEST 2018   EN: 2.550 GM2: 0.538  GM3: 0.1500  RAES: 3.00
     2s    -13.970922    2.096432
     2p    -10.063292    1.800000
  7     Wed Apr 25 08:07:45 CEST 2018   EN: 3.040 GM2: 0.461  GM3:-0.0640  RAES: 1.90
     2s    -16.686243    2.339881
     2p    -12.523956    2.014332
  8     Wed Apr 25 08:07:45 CEST 2018   EN: 3.440 GM2: 0.452  GM3:-0.0517  RAES: 1.80
     2s    -20.229985    2.439742
     2p    -15.503117    2.137023
 16     Tue Apr 24 11:44:34 CEST 2018   EN: 2.580 GM2: 0.340  GM3:-0.0502  RAES: 3.10
     3s    -20.029654    1.981333
     3p    -11.377694    2.025643
     3d     -0.420282    1.702555
 no old-style atom pair restraining (fixing) potential

molecular fragmentation (1/2 indicates fragments):
111111111111111222222222222222222222222222222222221122
# atoms in fragment 1/2:    17    37
 fragment masses (1/2) :      130.12      279.33
CMA distance (Bohr)    :  10.610
constraining FC (au)   :  0.0500
           ------------------------------------------------- 
          |        Self-Consistent Charge Iterations        |
           ------------------------------------------------- 

 Ncao       : 141
 Nao        : 140
 Nshell     : 82
 Nel        : 158
 T(el)      :   500.0
 intcut     :    35.0
 scfconv/Eh :  0.100E-06
   qconv/e  :  0.100E-04
 intneglect :  0.100E-08
 broydamp   :      0.400
 iter      E             dE          RMSdq      gap      omega  full diag
   1    -91.5973358 -0.915973E+02  0.552E+00    3.18       0.0  T
   2    -91.9315492 -0.334213E+00  0.255E+00    1.55       1.0  T
   3    -91.9550570 -0.235077E-01  0.150E+00    1.93       1.0  T
   4    -91.9754626 -0.204057E-01  0.330E-01    1.31       1.0  T
   5    -91.9767593 -0.129670E-02  0.175E-01    1.40       1.0  T
   6    -91.9769177 -0.158342E-03  0.643E-02    1.41       1.0  T
   7    -91.9769633 -0.456730E-04  0.295E-02    1.40       1.0  T
   8    -91.9769690 -0.569124E-05  0.106E-02    1.41       1.3  T
   9    -91.9769697 -0.708296E-06  0.487E-03    1.41       2.8  T
  10    -91.9769699 -0.135599E-06  0.236E-03    1.41       5.8  T
  11    -91.9769699 -0.422182E-07  0.103E-03    1.41      13.2  T
  12    -91.9769699 -0.576907E-08  0.463E-04    1.41      29.4  T
  13    -91.9769699 -0.127299E-08  0.212E-04    1.41      64.3  T
  14    -91.9769699 -0.286235E-09  0.676E-05    1.41     201.4  T
  15    -91.9769699 -0.258211E-10  0.279E-05    1.41     487.7  T
speedup 10.00
cpu  time for SCC    1.33 s
wall time for SCC    0.13 s

   *** convergence criteria satisfied after 15 iterations ***

          eigenvalues
 #    :          67         68         69         70         71         72         73         74
 occ. :        2.000      2.000      2.000      2.000      2.000      2.000      2.000      2.000
 eps  :       -11.748    -11.707    -11.231    -11.113    -10.630    -10.591    -10.431    -10.222
 #    :          75         76         77         78         79         80         81         82
 occ. :        2.000      2.000      2.000      2.000      2.000      0.000      0.000      0.000
 eps  :       -10.154    -10.120     -9.662     -9.654     -9.611     -8.201     -8.091     -5.891
 #    :          83         84         85         86         87         88         89         90
 occ. :        0.000      0.000      0.000      0.000      0.000      0.000      0.000      0.000
 eps  :        -5.160     -4.622     -4.434     -3.619     -1.122      0.092      0.184      0.273


   #   Z            q   n(s)   n(p)   n(d)      C6AA      α(0)
   1   7 N     -0.368  1.303  4.065  0.000    29.491     8.065
   2   6 C      0.056  1.046  2.898  0.000    19.658     6.316
   3   6 C      0.193  1.105  2.702  0.000    23.870     8.002
   4   8 O     -0.381  1.748  4.633  0.000    21.301     6.188
   5   6 C     -0.051  1.051  2.999  0.000    21.476     6.597
   6   6 C     -0.089  1.065  3.024  0.000    22.202     6.709
   7   6 C      0.367  1.028  2.605  0.000    20.769     7.458
   8   8 O     -0.657  1.776  4.880  0.000    27.554     7.038
   9   8 O     -0.664  1.791  4.873  0.000    27.741     7.062
  10   1 H      0.169  0.831  0.000  0.000     1.281     1.773
  11   1 H      0.022  0.978  0.000  0.000     2.708     2.574
  12   1 H      0.064  0.936  0.000  0.000     2.156     2.296
  13   1 H      0.032  0.968  0.000  0.000     2.559     2.502
  14   1 H      0.028  0.972  0.000  0.000     2.616     2.529
  15   1 H      0.038  0.962  0.000  0.000     2.474     2.460
  16   7 N     -0.385  1.313  4.072  0.000    29.956     8.129
  17   6 C      0.026  1.073  2.901  0.000    20.160     6.397
  18   6 C      0.271  1.052  2.677  0.000    22.429     7.755
  19   8 O     -0.515  1.753  4.762  0.000    24.109     6.583
  20   1 H      0.142  0.858  0.000  0.000     1.460     1.893
  21   1 H      0.040  0.960  0.000  0.000     2.453     2.449
  22   6 C     -0.038  1.046  2.992  0.000    21.250     6.562
  23   6 C     -0.087  1.066  3.021  0.000    22.162     6.704
  24   6 C      0.371  1.026  2.602  0.000    20.705     7.446
  25   8 O     -0.650  1.780  4.870  0.000    27.376     7.015
  26   8 O     -0.653  1.769  4.884  0.000    27.446     7.024
  27   1 H      0.033  0.967  0.000  0.000     2.548     2.496
  28   1 H      0.012  0.988  0.000  0.000     2.857     2.643
  29   1 H      0.020  0.980  0.000  0.000     2.739     2.588
  30   1 H      0.013  0.987  0.000  0.000     2.835     2.633
  31   7 N     -0.167  1.252  3.915  0.000    24.620     7.369
  32   6 C      0.031  1.062  2.906  0.000    20.051     6.376
  33   6 C      0.208  1.085  2.707  0.000    23.592     7.954
  34   8 O     -0.375  1.765  4.610  0.000    21.181     6.170
  35   6 C     -0.066  1.050  3.016  0.000    21.712     6.626
  36   6 C      0.002  1.051  2.947  0.000    20.538     6.451
  37  16 S     -0.221  1.910  4.258  0.053   150.499    20.648
  38   6 C     -0.068  1.058  3.010  0.000    21.881     6.673
  39   1 H      0.227  0.773  0.000  0.000     0.977     1.548
  40   1 H      0.078  0.922  0.000  0.000     1.998     2.210
  41   1 H      0.077  0.923  0.000  0.000     2.016     2.220
  42   1 H      0.070  0.930  0.000  0.000     2.086     2.259
  43   1 H      0.048  0.952  0.000  0.000     2.347     2.396
  44   1 H      0.057  0.943  0.000  0.000     2.238     2.340
  45   1 H      0.087  0.913  0.000  0.000     1.912     2.162
  46   1 H      0.059  0.941  0.000  0.000     2.214     2.327
  47   1 H      0.067  0.933  0.000  0.000     2.122     2.278
  48   8 O     -0.622  1.743  4.879  0.000    25.723     6.845
  49   1 H      0.304  0.696  0.000  0.000     0.709     1.323
  50   1 H      0.296  0.704  0.000  0.000     0.732     1.343
  51   1 H      0.165  0.835  0.000  0.000     1.301     1.786
  52   1 H      0.106  0.894  0.000  0.000     1.733     2.058
  53   1 H      0.192  0.808  0.000  0.000     1.150     1.680
  54   1 H      0.085  0.915  0.000  0.000     1.923     2.168

 Mol. C6AA /au·bohr⁶  :      30604.103080
 Mol. C8AA /au·bohr⁸  :     710662.004593
 Mol. α(0) /au        :        261.098941

 
 Wiberg/Mayer (AO) data. WBOs > 0.1 written file <wbo>
 largest (>0.05) Wiberg bond orders for each atom
           total WBO             WBO to atom ...
     1  N   3.009    C    2 1.009    H   51 0.962    H   10 0.948
     2  C   3.986    N    1 1.009    C    3 0.984    C    5 0.963    H   11 0.958    O    4 0.051
     3  C   3.881    O    4 1.849    C    2 0.984    H   52 0.949
     4  O   2.050    C    3 1.849    C    2 0.051
     5  C   3.993    C    6 1.000    H   13 0.976    H   12 0.972    C    2 0.963
     6  C   3.992    C    5 1.000    H   15 0.976    H   14 0.963    C    7 0.923    O    9 0.053    O    8 0.051
     7  C   3.929    O    9 1.498    O    8 1.488    C    6 0.923
     8  O   1.777    C    7 1.488    O    9 0.216    C    6 0.051
     9  O   1.788    C    7 1.498    O    8 0.216    C    6 0.053
    10  H   0.972    N    1 0.948
    11  H   1.000    C    2 0.958
    12  H   0.996    C    5 0.972
    13  H   0.999    C    5 0.976
    14  H   0.999    C    6 0.963
    15  H   0.997    C    6 0.976
    16  N   2.993    C   17 1.011    H   20 0.961    H   53 0.955
    17  C   3.980    N   16 1.011    C   22 0.982    H   21 0.965    C   18 0.915    O   19 0.053
    18  C   3.943    O   19 1.615    N   31 1.340    C   17 0.915
    19  O   1.932    C   18 1.615    N   31 0.195    C   17 0.053
    20  H   0.980    N   16 0.961
    21  H   0.998    C   17 0.965
    22  C   3.994    C   23 1.013    C   17 0.982    H   28 0.975    H   27 0.969
    23  C   3.991    C   22 1.013    H   29 0.976    H   30 0.968    C   24 0.899    O   25 0.059    O   26 0.055
    24  C   3.928    O   25 1.508    O   26 1.499    C   23 0.899
    25  O   1.801    C   24 1.508    O   26 0.215    C   23 0.059
    26  O   1.788    C   24 1.499    O   25 0.215    C   23 0.055
    27  H   0.999    C   22 0.969
    28  H   1.000    C   22 0.975
    29  H   1.000    C   23 0.976
    30  H   1.000    C   23 0.968
    31  N   3.474    C   18 1.340    C   32 0.949    H   39 0.902    O   19 0.195
    32  C   3.960    C   33 0.988    C   35 0.969    H   40 0.950    N   31 0.949
    33  C   3.902    O   34 1.878    C   32 0.988    H   54 0.954
    34  O   2.019    C   33 1.878
    35  C   3.983    C   36 1.012    C   32 0.969    H   41 0.968    H   42 0.964
    36  C   3.984    C   35 1.012    S   37 0.998    H   44 0.969    H   43 0.965
    37  S   2.097    C   38 1.007    C   36 0.998
    38  C   3.971    S   37 1.007    H   47 0.983    H   46 0.980    H   45 0.976
    39  H   0.948    N   31 0.902
    40  H   0.994    C   32 0.950
    41  H   0.994    C   35 0.968
    42  H   0.995    C   35 0.964
    43  H   0.998    C   36 0.965
    44  H   0.997    C   36 0.969
    45  H   0.992    C   38 0.976
    46  H   0.997    C   38 0.980
    47  H   0.996    C   38 0.983
    48  O   1.807    H   50 0.911    H   49 0.871
    49  H   0.908    O   48 0.871
    50  H   0.912    O   48 0.911
    51  H   0.973    N    1 0.962
    52  H   0.989    C    3 0.949
    53  H   0.963    N   16 0.955
    54  H   0.993    C   33 0.954
 
molecular dipole:
                 x           y           z       tot (Debye)
 q only:      -21.375     -79.200     -51.795
   full:      -20.271     -79.444     -50.835     245.208
molecular quadrupole (traceless):
                xx          xy          yy          xz          yz          zz
 q only:     2026.584   -1248.132   -2341.591    -849.441   -3167.698     315.007
  q+dip:     2039.773   -1177.434   -2388.596    -810.479   -3109.266     348.822
   full:     2040.818   -1177.983   -2388.374    -810.265   -3109.556     347.555
speedup 10.02
cpu  time for grad    1.44 s
wall time for grad    0.14 s

SCC energy    :     -91.9761745
rep           :       0.9638858
ES            :       0.7114427
AES           :      -0.0182110
AXC           :       0.0250591
disp          :      -0.0517514
XB            :       0.0000000
fix           :       0.0000000
Gborn         :       0.0000000
Gsasa         :       0.0000000
Ghb           :       0.0000000
Gshift        :       0.0000000
Gsolv         :      -0.3287753     -206.31
Etot ala COSMO:     -91.9761745
grad norm     :       0.3354425
total E       :     -91.0109820
atomizationE  :      15.1807410     9526.06
(atE without considering molecular charge,
 total energy contains solvation terms)
H-L gap (eV)  :          1.4106

------------------------------------------------------------------------
 * finished run on 2019/02/16 at 08:10:16.811     
------------------------------------------------------------------------
 total:
 * wall-time:     0 d,  0 h,  0 min,  0.232 sec
 *  cpu-time:     0 d,  0 h,  0 min,  2.155 sec
 * ratio c/w:     9.295 speedup
 SCF:
 * wall-time:     0 d,  0 h,  0 min,  0.158 sec
 *  cpu-time:     0 d,  0 h,  0 min,  1.598 sec
 * ratio c/w:    10.128 speedup

