      -----------------------------------------------------------      
     |                   =====================                   |     
     |                           x T B                           |     
     |                   =====================                   |     
     |                         S. Grimme                         |     
     |          Mulliken Center for Theoretical Chemistry        |     
     |                    University of Bonn                     |     
     |                 Version 6.0.1 (SAW181210)                 |     
      -----------------------------------------------------------      

   This program is distributed in the hope that it will be useful,
   but WITHOUT ANY WARRANTY; without even the implied warranty of
   MERCHANTABILITY or FITNESS FOR A PARTICULAR PURPOSE.
   
   FOR NON-COMMERCIAL, ACADEMIA USE ONLY.
   
   Cite this work as:
   S. Grimme, C. Bannwarth, P. Shushkov, J. Comput. Theory Chem., 2017,
   13, 1989-2009.
   C. Bannwarth, S. Ehlert and S. Grimme., ChemRxiv, 2018, preprint.
   http://doi.org/10.26434/chemrxiv.7246238.v1
   
   for sTDA-xTB:
   S. Grimme and C. Bannwarth, J. Chem. Phys., 2016, 145, 054103.
   
   in the mass-spec context:
   V. Asgeirsson, C. Bauer and S. Grimme, Chem. Sci., 2017, 8, 4879.
   
   if GBSA is used:
   P. Shushkov, F. März and S. Grimme, unpublished.
   
   for ANC optimizer:
   S. Grimme, unpublished.
   Rational Function algorithm used in ANCopt:
   F. Eckert, P. Pulay, H.-J. Werner, J. Comput. Chem., 1997, 18, 1473.
   
   with help from (in alphabetical order)
   C. Bannwarth, F. Bohle, G. Brandenburg, E. Caldeweyher, M. Checinski,
   S. Dohm, S. Ehlert, S. Ehrlich, F. März, H. Neugebauer, J. Pisarek,
   P. Pracht, P. Shushkov, and S. Spicher.
   
 * started run on 2019/02/16 at 08:09:44.011     
========================================================================
 # omp threads = 12
========================================================================
number of atoms            : 532
number of electrons        : 1428
charge                     : -1
spin                       : .0
first test random number   : .6225

########################################################################
# WARNING! Please study the warnings concerning your input carefully
#  - Process number higher than OMP_NUM_THREADS, I hope you know what you are doing.
########################################################################

           ------------------------------------------------- 
          |                 G F N 2 - x T B                 |
          | Geometry, Frequencies, Noncovalent interactions |
          |            JCTC 2018 parametrisation            |
           ------------------------------------------------- 
 
      method parameters     
 k(s)        :  1.8500
 k(p)        :  2.2300
 k(d)        :  2.2300
 k(f)        :  2.0000
 kEN (H0ij)  : -2.0000
 D4 a1       :  0.5200
 D4 a2       :  5.0000
 D4 s6       :  1.0000
 D4 s8       :  2.7000
 D4 s9       :  5.0000
 alphaj      :  2.0000

 Solvent             : h2o
 Using internal parameter file: .param_gbsa2_h2o
 Gsolv ref. state (COSMO-RS): gsolv [1 M gas/solution]
 temperature (mdtemp)       :    298.150000000000     
 dielectric constant        :    80.2000000000000     
 rho                        :    1.00000000000000     
 mass                       :    18.0000000000000     
 surface tension            :    15.5689454083859     
 probe radius               :   0.975313790000000     
 vdW radii scaling          :    1.00000000000000     
 Gshift (Eh)                :   1.857443126794793E-003
 c1                         :    1.55243817000000     
 soset                      :   0.130326360000000     
 HB correction              :  T

            Z     q(EN)     CN     RAES       Cart. coordinates
     1  N   5.0   -0.21    3.19    1.95    10.33331    32.35433     9.71054
     2  C   4.0    0.02    4.28    4.16     8.30012    30.42585     9.76601
     3  C   4.0    0.14    3.46    3.10     6.95905    30.31244     7.18613
     4  O   6.0   -0.32    1.27    1.80     6.37320    28.25622     6.25650
     5  C   4.0   -0.04    4.23    4.07     6.25715    31.18437    11.75616
     6  C   4.0   -0.03    4.19    3.99     4.58062    28.91226    12.26478
     7  C   4.0    0.24    3.08    3.02     2.36604    29.15475    14.16637
     8  O   6.0   -0.29    1.17    1.80     2.17158    31.13793    15.38418
     9  O   6.0   -0.29    1.16    1.80     0.90907    27.26850    14.31742
    10  H   1.0    0.08    1.02    1.43    10.31962    33.72407    11.05083
    11  H   1.0    0.05    1.04    1.43     9.10131    28.57288    10.18982
    12  H   1.0    0.05    1.02    1.43     7.18119    31.79546    13.49311
    13  H   1.0    0.05    1.03    1.43     5.14346    32.72481    10.99711
    14  H   1.0    0.05    1.03    1.43     3.73374    28.24671    10.49888
    15  H   1.0    0.05    1.03    1.43     5.73248    27.34925    12.98410
    16  N   5.0   -0.15    3.52    2.09     6.42453    32.52178     6.10435
    17  C   4.0    0.03    4.44    4.45     5.27002    32.59561     3.68957
    18  C   4.0    0.15    3.48    3.11     6.95975    31.28407     1.73581
    19  O   6.0   -0.32    1.26    1.80     6.06152    29.87039     0.11482
    20  C   4.0   -0.05    4.35    4.30     4.86021    35.37007     2.85807
    21  C   4.0   -0.03    4.20    4.00     2.72108    36.63658     4.38049
    22  C   4.0   -0.08    4.18    3.96     2.56288    39.35721     3.58762
    23  C   4.0   -0.08    4.15    3.91     0.11585    35.60461     3.80455
    24  H   1.0    0.07    1.07    1.44     6.82542    34.15568     7.01845
    25  H   1.0    0.05    1.05    1.44     3.47897    31.55286     3.71230
    26  H   1.0    0.04    1.03    1.43     6.63021    36.38082     3.14345
    27  H   1.0    0.04    1.03    1.43     4.37585    35.37549     0.85554
    28  H   1.0    0.04    1.06    1.44     3.09418    36.46927     6.39266
    29  H   1.0    0.03    1.00    1.43     1.11346    40.34007     4.66551
    30  H   1.0    0.04    1.00    1.43     4.34249    40.34597     3.91537
    31  H   1.0    0.04    1.00    1.43     2.10820    39.50808     1.58875
    32  H   1.0    0.03    1.01    1.43    -1.26720    36.62870     4.92743
    33  H   1.0    0.03    1.00    1.43    -0.35588    35.82779     1.82057
    34  H   1.0    0.03    1.00    1.43    -0.08076    33.61113     4.28097
    35  N   5.0   -0.15    3.49    2.07     9.40011    31.84216     1.78350
    36  C   4.0    0.03    4.44    4.45    11.10708    30.75534    -0.11416
    37  C   4.0    0.16    3.49    3.11    11.30735    27.93082     0.18699
    38  O   6.0   -0.30    1.27    1.80    11.24680    26.35054    -1.59760
    39  C   4.0   -0.04    4.39    4.37    13.72494    31.85766     0.15139
    40  C   4.0    0.16    3.25    3.04    15.60892    31.10892    -1.84831
    41  O   6.0   -0.27    1.20    1.80    17.61420    30.06141    -1.29887
    42  N   5.0   -0.19    3.27    1.97    14.83772    31.57269    -4.09288
    43  H   1.0    0.07    1.06    1.44    10.11366    33.08325     3.06118
    44  H   1.0    0.05    1.05    1.44    10.26695    31.10058    -1.97983
    45  H   1.0    0.04    1.03    1.43    13.54953    33.92176     0.14511
    46  H   1.0    0.05    1.03    1.43    14.48129    31.32009     1.99872
    47  H   1.0    0.11    1.11    1.45    15.72888    30.84485    -5.63871
    48  H   1.0    0.08    1.05    1.44    13.18127    32.48083    -4.34734
    49  N   5.0   -0.13    3.45    2.05    11.40474    27.05645     2.56604
    50  C   4.0    0.04    4.41    4.40    11.48052    24.32917     2.98739
    51  C   4.0    0.16    3.47    3.10     9.09641    22.99005     2.10260
    52  O   6.0   -0.30    1.27    1.80     9.09548    20.85062     1.20061
    53  C   4.0   -0.04    4.28    4.16    11.75557    23.43208     5.76358
    54  C   4.0   -0.03    4.16    3.93    14.30572    24.06924     6.91371
    55  C   4.0    0.25    3.09    3.02    14.46850    23.44579     9.78470
    56  O   6.0   -0.30    1.20    1.80    12.46917    22.77517    10.89169
    57  O   6.0   -0.27    1.16    1.80    16.61443    23.71195    10.72771
    58  H   1.0    0.08    1.05    1.44    11.60053    28.19905     4.10099
    59  H   1.0    0.06    1.05    1.44    13.04028    23.53788     1.86403
    60  H   1.0    0.06    1.03    1.43    10.26128    24.31554     6.88161
    61  H   1.0    0.06    1.04    1.43    11.49741    21.38837     5.74943
    62  H   1.0    0.06    1.02    1.43    15.81362    23.05546     5.94059
    63  H   1.0    0.05    1.03    1.43    14.68014    26.09179     6.73295
    64  N   5.0   -0.14    3.50    2.08     6.90717    24.20814     2.52274
    65  C   4.0    0.04    4.29    4.18     4.45489    23.19411     1.76678
    66  C   4.0    0.15    3.38    3.07     4.37174    22.89405    -1.14120
    67  O   6.0   -0.31    1.24    1.80     3.49901    20.95859    -2.10492
    68  C   4.0   -0.07    4.08    3.76     2.37794    24.82757     2.95915
    69  H   1.0    0.11    1.09    1.44     6.88042    25.87737     3.47082
    70  H   1.0    0.05    1.05    1.44     4.31757    21.24471     2.46943
    71  H   1.0    0.05    1.00    1.43     0.56752    23.88542     2.76172
    72  H   1.0    0.05    1.00    1.43     2.82122    25.08559     4.94499
    73  H   1.0    0.05    1.00    1.43     2.32790    26.66594     2.04753
    74  N   5.0   -0.14    3.48    2.06     5.34865    24.84549    -2.55174
    75  C   4.0    0.04    4.46    4.47     5.43081    24.72571    -5.26928
    76  C   4.0    0.16    3.45    3.09     7.02728    22.63548    -6.21061
    77  O   6.0   -0.30    1.25    1.80     6.39774    21.28022    -7.99290
    78  C   4.0   -0.04    4.43    4.43     6.10903    27.20988    -6.39936
    79  C   4.0   -0.02    4.18    3.95     4.13299    29.33603    -5.88205
    80  C   4.0   -0.08    4.15    3.91     5.53569    31.66303    -6.74285
    81  C   4.0   -0.08    4.09    3.78     1.73611    28.84903    -7.44557
    82  H   1.0    0.11    1.08    1.44     5.97914    26.40334    -1.63509
    83  H   1.0    0.05    1.07    1.44     3.52252    24.20650    -5.93894
    84  H   1.0    0.05    1.03    1.43     7.95128    27.76496    -5.64792
    85  H   1.0    0.05    1.04    1.43     6.27407    26.94493    -8.43589
    86  H   1.0    0.05    1.05    1.44     3.69121    29.42497    -3.87491
    87  H   1.0    0.04    1.00    1.43     4.37786    33.35132    -6.55070
    88  H   1.0    0.04    1.00    1.43     7.24236    31.91757    -5.63577
    89  H   1.0    0.04    1.01    1.43     6.04882    31.46784    -8.72276
    90  H   1.0    0.03    1.00    1.43     0.47377    30.46857    -7.37142
    91  H   1.0    0.04    1.00    1.43     2.22062    28.51764    -9.41599
    92  H   1.0    0.04    1.00    1.43     0.72370    27.19908    -6.77169
    93  N   5.0   -0.13    3.45    2.05     9.30789    22.29554    -5.03579
    94  C   4.0    0.04    4.39    4.36    11.04353    20.19202    -5.68766
    95  C   4.0    0.16    3.42    3.09     9.93186    17.61625    -5.12945
    96  O   6.0   -0.31    1.30    1.80    10.16360    15.92746    -6.73696
    97  C   4.0   -0.03    4.28    4.16    13.66753    20.56255    -4.53071
    98  C   4.0   -0.03    4.21    4.01    14.96354    22.91875    -5.55301
    99  C   4.0    0.24    3.14    3.03    17.62721    23.14591    -4.55966
   100  O   6.0   -0.27    1.20    1.80    18.24736    21.82332    -2.70381
   101  O   6.0   -0.33    1.32    1.80    19.08726    24.74628    -5.57967
   102  H   1.0    0.11    1.08    1.44     9.80489    23.39477    -3.55431
   103  H   1.0    0.06    1.06    1.44    11.24488    20.23638    -7.75942
   104  H   1.0    0.07    1.03    1.43    13.49827    20.70804    -2.47715
   105  H   1.0    0.06    1.03    1.43    14.80808    18.89035    -4.91924
   106  H   1.0    0.05    1.02    1.43    14.97114    22.90759    -7.61794
   107  H   1.0    0.07    1.03    1.43    13.93991    24.59329    -4.90585
   108  N   5.0   -0.13    3.47    2.06     8.58372    17.32060    -3.08888
   109  C   4.0    0.04    4.37    4.32     7.27482    14.89846    -2.54753
   110  C   4.0    0.15    3.45    3.10     5.27680    14.43113    -4.57408
   111  O   6.0   -0.31    1.26    1.80     4.96180    12.29586    -5.53975
   112  C   4.0   -0.04    4.29    4.18     6.13959    15.04335     0.11566
   113  C   4.0   -0.02    4.13    3.87     4.28794    12.78273     0.85197
   114  C   4.0   -0.07    4.09    3.78     5.93509    10.42818     1.13381
   115  C   4.0   -0.07    4.06    3.74     2.62629    13.44596     3.10763
   116  H   1.0    0.11    1.09    1.44     8.66207    18.59076    -1.65169
   117  H   1.0    0.05    1.05    1.44     8.64843    13.36128    -2.70415
   118  H   1.0    0.05    1.02    1.43     7.68887    15.14033     1.46541
   119  H   1.0    0.06    1.03    1.43     5.07068    16.80798     0.21068
   120  H   1.0    0.05    1.06    1.44     3.04644    12.48982    -0.77729
   121  H   1.0    0.05    1.00    1.43     4.80181     8.77387     1.55258
   122  H   1.0    0.05    1.00    1.43     6.92764    10.07903    -0.62490
   123  H   1.0    0.04    1.00    1.43     7.30752    10.69655     2.63711
   124  H   1.0    0.05    1.00    1.43     1.24673    11.95414     3.38235
   125  H   1.0    0.05    1.00    1.43     3.75134    13.61696     4.81180
   126  H   1.0    0.04    1.00    1.43     1.65105    15.21254     2.73053
   127  N   5.0   -0.13    3.49    2.07     3.73655    16.29317    -5.30928
   128  C   4.0    0.04    4.37    4.33     1.75829    15.92952    -7.16264
   129  C   4.0    0.16    3.45    3.09     3.00232    15.14613    -9.68334
   130  O   6.0   -0.29    1.24    1.80     1.96855    13.49275   -10.97586
   131  C   4.0   -0.05    4.24    4.07     0.16119    18.38634    -7.25439
   132  C   4.0   -0.05    4.13    3.86    -2.13644    18.23069    -9.06813
   133  C   4.0   -0.05    4.18    3.96    -3.29310    20.92475    -9.20257
   134  C   4.0   -0.04    4.11    3.82    -5.47667    21.20954   -11.04426
   135  N   5.0   -0.12    4.01    2.88    -7.75898    20.00667    -9.92954
   136  H   1.0    0.11    1.09    1.44     3.86834    18.03322    -4.50064
   137  H   1.0    0.05    1.06    1.44     0.58491    14.31774    -6.61588
   138  H   1.0    0.04    1.03    1.43    -0.49434    18.75185    -5.34102
   139  H   1.0    0.06    1.03    1.43     1.39505    19.92171    -7.86540
   140  H   1.0    0.05    1.02    1.43    -1.50474    17.66174   -10.94377
   141  H   1.0    0.04    1.02    1.43    -3.48771    16.85396    -8.37842
   142  H   1.0    0.03    1.03    1.43    -3.92622    21.47330    -7.32261
   143  H   1.0    0.04    1.03    1.43    -1.78914    22.21064    -9.78052
   144  H   1.0    0.03    1.02    1.43    -5.86668    23.21021   -11.35404
   145  H   1.0    0.04    1.02    1.43    -5.07462    20.32493   -12.85624
   146  H   1.0    0.05    1.02    1.43    -9.39683    20.49562   -10.85909
   147  H   1.0    0.05    0.99    1.43    -7.48321    17.97852   -10.02719
   148  H   1.0    0.05    1.03    1.43    -7.94387    20.51872    -8.07746
   149  N   5.0   -0.13    3.51    2.08     5.10533    16.31596   -10.49653
   150  C   4.0    0.05    4.51    4.54     6.27175    15.60749   -12.81508
   151  C   4.0    0.16    3.54    3.13     7.32210    12.92771   -12.61038
   152  O   6.0   -0.27    1.26    1.80     7.23269    11.59679   -14.50836
   153  C   4.0   -0.02    4.38    4.35     8.51809    17.19382   -13.34344
   154  C   4.0    0.26    3.14    3.03     7.71756    19.79540   -14.36666
   155  O   6.0   -0.29    1.19    1.80     5.49343    20.14751   -15.00696
   156  O   6.0   -0.33    1.40    1.80     9.53723    21.32962   -14.43949
   157  H   1.0    0.11    1.09    1.44     5.69271    17.91284    -9.60268
   158  H   1.0    0.08    1.06    1.44     4.91934    15.64674   -14.38356
   159  H   1.0    0.06    1.03    1.43     9.64959    17.45172   -11.63630
   160  H   1.0    0.06    1.04    1.43     9.70795    16.30784   -14.78113
   161  N   5.0   -0.14    3.50    2.08     8.39536    12.14885   -10.46938
   162  C   4.0    0.05    4.36    4.31     9.50970     9.66683   -10.32073
   163  C   4.0    0.17    3.42    3.08     7.53065     7.58083   -10.77477
   164  O   6.0   -0.30    1.33    1.80     8.18007     5.51941   -11.56297
   165  C   4.0   -0.06    4.12    3.83    10.88854     9.32264    -7.86011
   166  H   1.0    0.11    1.09    1.44     8.59927    13.32578    -8.97303
   167  H   1.0    0.07    1.06    1.44    10.86038     9.46014   -11.88678
   168  H   1.0    0.06    1.01    1.43    11.74057     7.45711    -7.79404
   169  H   1.0    0.06    1.00    1.43    12.38265    10.72097    -7.69313
   170  H   1.0    0.05    1.00    1.43     9.58351     9.54217    -6.28430
   171  N   5.0   -0.13    3.52    2.09     5.11884     8.12718   -10.23573
   172  C   4.0    0.04    4.34    4.28     3.06750     6.21155   -10.58691
   173  C   4.0    0.10    3.20    3.04     2.07598     6.50726   -13.25297
   174  O   6.0   -0.26    1.12    1.80     2.14569     4.84136   -14.83114
   175  C   4.0   -0.05    4.25    4.11     1.23038     6.48314    -8.41960
   176  C   4.0   -0.03    4.30    4.20     2.77522     6.37975    -6.01214
   177  C   4.0    0.15    3.21    3.04     1.40816     5.62726    -3.62205
   178  O   6.0   -0.27    1.25    1.80     2.44377     4.23459    -2.06472
   179  N   5.0   -0.19    3.18    1.95    -0.86001     6.68297    -3.19657
   180  H   1.0    0.11    1.07    1.44     4.63868     9.84469    -9.56837
   181  H   1.0    0.07    1.07    1.44     4.02733     4.37403   -10.52341
   182  H   1.0    0.05    1.03    1.43     0.17474     8.24137    -8.57059
   183  H   1.0    0.05    1.03    1.43    -0.10601     4.91015    -8.51358
   184  H   1.0    0.05    1.04    1.43     4.34879     5.06511    -6.24589
   185  H   1.0    0.06    1.04    1.43     3.60090     8.24100    -5.64777
   186  H   1.0    0.08    1.03    1.43    -1.72440     7.66676    -4.57576
   187  H   1.0    0.11    1.04    1.43    -1.90622     5.84970    -1.81221
   188  O   6.0   -0.32    2.07    1.83    17.15538    29.00883    -7.80766
   189  H   1.0    0.15    1.00    1.43    17.28585    27.20407    -7.35589
   190  H   1.0    0.13    0.98    1.43    18.60674    29.58834    -6.85420
   191  O   6.0   -0.32    2.01    1.83    14.08681    21.61786   -12.60405
   192  H   1.0    0.13    0.97    1.43    15.01910    21.82100   -14.15137
   193  H   1.0    0.16    1.05    1.44    12.35936    21.20038   -13.17558
   194  O   6.0   -0.28    1.93    1.82    17.08690    12.55767    -2.56519
   195  H   1.0    0.14    0.97    1.43    18.06900    13.90384    -1.86102
   196  H   1.0    0.14    0.99    1.43    16.59492    13.10618    -4.24341
   197  O   6.0   -0.30    1.94    1.82    15.70989    14.53716    -7.75473
   198  H   1.0    0.15    1.02    1.43    16.54985    15.83945    -8.74771
   199  H   1.0    0.15    0.98    1.43    13.93434    14.95833    -7.72444
   200  O   6.0   -0.30    1.98    1.82    17.86487    18.68580    -9.94348
   201  H   1.0    0.13    0.97    1.43    18.25584    19.64308    -8.45425
   202  H   1.0    0.14    0.99    1.43    16.51650    19.61376   -10.80389
   203  O   6.0   -0.30    1.96    1.82    23.24165    26.91338    -3.81844
   204  H   1.0    0.15    0.97    1.43    23.24270    27.23102    -2.03765
   205  H   1.0    0.17    1.04    1.43    21.63367    26.09595    -4.20934
   206  O   6.0   -0.29    1.92    1.82    12.55767    17.08690     2.56519
   207  H   1.0    0.14    0.97    1.43    13.90384    18.06900     1.86102
   208  H   1.0    0.13    0.97    1.43    13.10618    16.59492     4.24341
   209  O   6.0   -0.30    1.92    1.82    13.79638    28.22070   -18.05629
   210  H   1.0    0.15    1.00    1.43    14.92421    28.68860   -16.68452
   211  H   1.0    0.14    0.97    1.43    12.48686    27.20307   -17.33137
   212  O   6.0   -0.32    1.96    1.82    10.93538     2.73396    -8.41967
   213  H   1.0    0.14    0.98    1.43    12.10514     1.67214    -9.32231
   214  H   1.0    0.17    1.05    1.44    10.13187     3.76677    -9.70419
   215  O   6.0   -0.32    1.96    1.82     2.73396    10.93538     8.41967
   216  H   1.0    0.14    0.98    1.43     1.67214    12.10514     9.32231
   217  H   1.0    0.16    1.04    1.44     3.76677    10.13187     9.70419
   218  N   5.0   -0.20    3.23    1.96    21.22336    30.97847   -10.90868
   219  C   4.0    0.03    4.23    4.05    21.59071    29.75327   -13.34579
   220  C   4.0    0.08    3.21    3.04    19.71486    30.71838   -15.28059
   221  O   6.0   -0.31    1.18    1.80    17.46029    30.56766   -14.83917
   222  C   4.0   -0.04    4.26    4.12    21.14732    26.89644   -12.91131
   223  C   4.0   -0.05    4.15    3.90    22.61761    25.30054   -14.85910
   224  C   4.0   -0.00    4.17    3.95    22.17915    22.40313   -14.53835
   225  N   5.0   -0.14    3.40    2.02    23.52397    21.07951   -16.55085
   226  C   4.0    0.10    3.33    3.06    23.26151    18.62569   -17.09031
   227  N   5.0   -0.17    3.24    1.97    21.48591    17.27426   -15.89883
   228  N   5.0   -0.19    3.23    1.96    24.56588    17.70104   -19.04365
   229  H   1.0    0.11    1.07    1.44    19.70520    30.35684    -9.93155
   230  H   1.0    0.03    1.05    1.44    23.53812    30.11966   -13.92906
   231  H   1.0    0.05    1.03    1.43    21.77154    26.38825   -11.01559
   232  H   1.0    0.06    1.03    1.43    19.12694    26.51558   -13.03600
   233  H   1.0    0.04    1.03    1.43    21.97898    25.82917   -16.74504
   234  H   1.0    0.04    1.02    1.43    24.62176    25.70772   -14.65220
   235  H   1.0    0.05    1.02    1.43    22.83531    21.78921   -12.67655
   236  H   1.0    0.05    1.02    1.43    20.16525    21.99144   -14.67786
   237  H   1.0    0.07    1.07    1.44    24.94548    22.05179   -17.37788
   238  H   1.0    0.11    1.04    1.43    20.99024    17.76344   -14.12050
   239  H   1.0    0.10    1.03    1.43    21.37750    15.38914   -16.24208
   240  H   1.0    0.08    1.03    1.43    25.83211    18.76908   -19.97808
   241  H   1.0    0.09    1.03    1.43    24.39877    15.85757   -19.48151
   242  N   5.0   -0.21    3.17    1.95    12.00964    37.67323   -17.95688
   243  C   4.0    0.03    4.17    3.93    11.53537    37.60308   -15.23456
   244  C   4.0    0.07    3.19    3.03    12.91383    39.69102   -13.77568
   245  O   6.0   -0.29    1.10    1.80    11.90401    40.89769   -12.02166
   246  C   4.0   -0.04    4.24    4.07    12.26251    34.99949   -14.16043
   247  C   4.0   -0.05    4.15    3.89    11.43769    34.50579   -11.36127
   248  C   4.0   -0.01    4.20    4.00    12.19532    31.77881   -10.55483
   249  N   5.0   -0.14    3.44    2.04    10.33896    30.11706   -11.88063
   250  C   4.0    0.10    3.34    3.06    10.66440    27.64712   -12.05057
   251  N   5.0   -0.18    3.31    1.99    12.87847    26.74566   -11.34246
   252  N   5.0   -0.18    3.26    1.97     8.93830    26.19783   -13.13096
   253  H   1.0    0.08    1.02    1.43    12.59285    36.06891   -18.84234
   254  H   1.0    0.05    1.05    1.44     9.50760    37.93300   -14.91179
   255  H   1.0    0.05    1.03    1.43    11.33075    33.57338   -15.31883
   256  H   1.0    0.06    1.02    1.43    14.30154    34.75415   -14.31317
   257  H   1.0    0.05    1.02    1.43    12.34894    35.88949   -10.14601
   258  H   1.0    0.04    1.02    1.43     9.40439    34.74265   -11.18418
   259  H   1.0    0.06    1.03    1.43    14.09644    31.39628   -11.24131
   260  H   1.0    0.04    1.02    1.43    12.03246    31.52011    -8.52532
   261  H   1.0    0.07    1.06    1.44     8.71694    30.90710   -12.54160
   262  H   1.0    0.10    1.06    1.44    14.10096    27.77524   -10.31602
   263  H   1.0    0.11    1.07    1.44    13.20655    24.85103   -11.48378
   264  H   1.0    0.09    1.03    1.43     7.23735    26.90457   -13.61946
   265  H   1.0    0.13    1.10    1.44     9.18567    24.30439   -13.42764
   266  N   5.0   -0.22    3.14    1.94    36.54424    13.27482    -8.45668
   267  C   4.0    0.03    4.14    3.89    34.01076    14.49205    -8.40819
   268  C   4.0    0.07    3.21    3.04    31.95429    12.40793    -8.34143
   269  O   6.0   -0.32    1.16    1.80    30.09712    12.59383    -6.89695
   270  H   1.0    0.08    1.02    1.43    37.63423    13.56950   -10.00156
   271  H   1.0    0.05    1.05    1.44    33.83457    15.55004    -6.64338
   272  C   4.0   -0.06    4.18    3.96    33.40799    16.29011   -10.65043
   273  C   4.0   -0.04    4.14    3.88    30.66706    17.28561   -10.81305
   274  C   4.0   -0.01    4.13    3.86    29.86138    19.21888    -8.77784
   275  N   5.0   -0.14    3.38    2.01    27.13035    19.77082    -8.92905
   276  C   4.0    0.10    3.33    3.06    25.80285    21.44360    -7.57387
   277  N   5.0   -0.18    3.24    1.96    26.88384    23.27307    -6.23893
   278  N   5.0   -0.18    3.25    1.97    23.28542    21.54359    -7.88781
   279  H   1.0    0.03    1.02    1.43    34.72045    17.87706   -10.56823
   280  H   1.0    0.04    1.03    1.43    33.77825    15.23544   -12.38726
   281  H   1.0    0.04    1.03    1.43    30.50230    18.15641   -12.67074
   282  H   1.0    0.06    1.03    1.43    29.36702    15.68271   -10.76919
   283  H   1.0    0.05    1.02    1.43    30.28470    18.45287    -6.91291
   284  H   1.0    0.04    1.02    1.43    30.89585    20.98490    -9.04494
   285  H   1.0    0.12    1.17    1.46    26.03535    18.36625    -9.71439
   286  H   1.0    0.08    1.03    1.43    28.61069    22.98042    -5.47572
   287  H   1.0    0.11    1.05    1.44    25.74842    24.47428    -5.24384
   288  H   1.0    0.11    1.04    1.44    22.45041    20.02784    -8.69953
   289  H   1.0    0.11    1.05    1.44    22.21430    22.70419    -6.80608
   290  N   5.0   -0.21    3.16    1.95    27.05645    11.40474    -2.56604
   291  C   4.0    0.03    4.19    3.98    24.32917    11.48052    -2.98739
   292  C   4.0    0.07    3.24    3.04    22.99005     9.09641    -2.10260
   293  O   6.0   -0.30    1.16    1.80    20.85062     9.09548    -1.20061
   294  C   4.0   -0.03    4.28    4.15    23.43208    11.75557    -5.76358
   295  C   4.0   -0.03    4.17    3.93    24.06924    14.30572    -6.91371
   296  C   4.0    0.25    3.10    3.02    23.44579    14.46850    -9.78470
   297  O   6.0   -0.30    1.20    1.80    22.77517    12.46917   -10.89169
   298  O   6.0   -0.32    1.31    1.80    23.71195    16.61443   -10.72771
   299  H   1.0    0.12    1.06    1.44    28.19905    11.60053    -4.10099
   300  H   1.0    0.05    1.05    1.44    23.53788    13.04028    -1.86403
   301  H   1.0    0.05    1.03    1.43    24.31554    10.26128    -6.88161
   302  H   1.0    0.06    1.04    1.43    21.38837    11.49741    -5.74943
   303  H   1.0    0.05    1.02    1.43    23.05546    15.81362    -5.94059
   304  H   1.0    0.06    1.03    1.43    26.09179    14.68014    -6.73295
   305  N   5.0   -0.20    3.19    1.95    22.29554     9.30789     5.03579
   306  C   4.0    0.03    4.31    4.21    20.19202    11.04353     5.68766
   307  C   4.0    0.15    3.41    3.08    17.61625     9.93186     5.12945
   308  O   6.0   -0.31    1.28    1.80    15.92746    10.16360     6.73696
   309  C   4.0   -0.03    4.28    4.16    20.56255    13.66753     4.53071
   310  C   4.0   -0.03    4.20    4.01    22.91875    14.96354     5.55301
   311  C   4.0    0.25    3.13    3.03    23.14591    17.62721     4.55966
   312  O   6.0   -0.27    1.20    1.80    21.82332    18.24736     2.70381
   313  O   6.0   -0.27    1.16    1.80    24.74628    19.08726     5.57967
   314  H   1.0    0.09    1.02    1.43    23.39477     9.80489     3.55431
   315  H   1.0    0.05    1.06    1.44    20.23638    11.24488     7.75942
   316  H   1.0    0.06    1.03    1.43    20.70804    13.49827     2.47715
   317  H   1.0    0.06    1.03    1.43    18.89035    14.80808     4.91924
   318  H   1.0    0.05    1.02    1.43    22.90759    14.97114     7.61794
   319  H   1.0    0.05    1.03    1.43    24.59329    13.93991     4.90585
   320  N   5.0   -0.14    3.45    2.05    17.32060     8.58372     3.08888
   321  C   4.0    0.04    4.29    4.18    14.89846     7.27482     2.54753
   322  C   4.0    0.08    3.24    3.04    14.43113     5.27680     4.57408
   323  O   6.0   -0.31    1.12    1.80    12.29586     4.96180     5.53975
   324  C   4.0   -0.05    4.29    4.18    15.04335     6.13959    -0.11566
   325  C   4.0   -0.02    4.13    3.87    12.78273     4.28794    -0.85197
   326  C   4.0   -0.07    4.09    3.78    10.42818     5.93509    -1.13381
   327  C   4.0   -0.07    4.06    3.74    13.44596     2.62629    -3.10763
   328  H   1.0    0.11    1.09    1.44    18.59076     8.66207     1.65169
   329  H   1.0    0.06    1.05    1.44    13.36128     8.64843     2.70415
   330  H   1.0    0.06    1.02    1.43    15.14033     7.68887    -1.46541
   331  H   1.0    0.05    1.03    1.43    16.80798     5.07068    -0.21068
   332  H   1.0    0.05    1.06    1.44    12.48982     3.04644     0.77729
   333  H   1.0    0.05    1.00    1.43     8.77387     4.80181    -1.55258
   334  H   1.0    0.05    1.00    1.43    10.07903     6.92764     0.62490
   335  H   1.0    0.04    1.00    1.43    10.69655     7.30752    -2.63711
   336  H   1.0    0.05    1.00    1.43    11.95414     1.24673    -3.38235
   337  H   1.0    0.05    1.00    1.43    13.61696     3.75134    -4.81180
   338  H   1.0    0.04    1.00    1.43    15.21254     1.65105    -2.73053
   339  N   5.0   -0.20    3.25    1.97    12.14885     8.39536    10.46938
   340  C   4.0    0.04    4.24    4.08     9.66683     9.50970    10.32073
   341  C   4.0    0.15    3.38    3.07     7.58083     7.53065    10.77477
   342  O   6.0   -0.31    1.32    1.80     5.51941     8.18007    11.56297
   343  C   4.0   -0.06    4.11    3.83     9.32264    10.88854     7.86011
   344  H   1.0    0.12    1.05    1.44    13.32578     8.59927     8.97303
   345  H   1.0    0.05    1.06    1.44     9.46014    10.86038    11.88678
   346  H   1.0    0.05    1.00    1.43     7.45711    11.74057     7.79404
   347  H   1.0    0.05    1.00    1.43    10.72097    12.38265     7.69313
   348  H   1.0    0.05    1.00    1.43     9.54217     9.58351     6.28430
   349  N   5.0   -0.14    3.50    2.08     8.12718     5.11884    10.23573
   350  C   4.0    0.03    4.34    4.28     6.21155     3.06750    10.58691
   351  C   4.0    0.09    3.20    3.04     6.50726     2.07598    13.25297
   352  O   6.0   -0.26    1.12    1.80     4.84136     2.14569    14.83114
   353  C   4.0   -0.05    4.25    4.11     6.48314     1.23038     8.41960
   354  C   4.0   -0.03    4.30    4.20     6.37975     2.77522     6.01214
   355  C   4.0    0.15    3.21    3.04     5.62726     1.40816     3.62205
   356  O   6.0   -0.27    1.25    1.80     4.23459     2.44377     2.06472
   357  N   5.0   -0.18    3.18    1.95     6.68297    -0.86001     3.19657
   358  H   1.0    0.09    1.07    1.44     9.84469     4.63868     9.56837
   359  H   1.0    0.07    1.07    1.44     4.37403     4.02733    10.52341
   360  H   1.0    0.04    1.03    1.43     8.24137     0.17474     8.57059
   361  H   1.0    0.05    1.03    1.43     4.91015    -0.10601     8.51358
   362  H   1.0    0.05    1.04    1.43     5.06511     4.34879     6.24589
   363  H   1.0    0.06    1.04    1.43     8.24100     3.60090     5.64777
   364  H   1.0    0.08    1.03    1.43     7.66676    -1.72440     4.57576
   365  H   1.0    0.12    1.04    1.43     5.84970    -1.90622     1.81221
   366  N   5.0   -0.22    3.22    1.96    -6.90717    24.20814    -2.52274
   367  C   4.0    0.02    4.20    4.00    -4.45489    23.19411    -1.76678
   368  C   4.0    0.14    3.36    3.07    -4.37174    22.89405     1.14120
   369  O   6.0   -0.32    1.23    1.80    -3.49901    20.95859     2.10492
   370  C   4.0   -0.08    4.07    3.75    -2.37794    24.82757    -2.95915
   371  H   1.0    0.07    1.03    1.43    -6.88042    25.87737    -3.47082
   372  H   1.0    0.04    1.05    1.44    -4.31757    21.24471    -2.46943
   373  H   1.0    0.05    1.00    1.43    -0.56752    23.88542    -2.76172
   374  H   1.0    0.03    1.00    1.43    -2.82122    25.08559    -4.94499
   375  H   1.0    0.04    1.00    1.43    -2.32790    26.66594    -2.04753
   376  N   5.0   -0.15    3.44    2.04    -5.34865    24.84549     2.55174
   377  C   4.0    0.03    4.36    4.31    -5.43081    24.72571     5.26928
   378  C   4.0    0.08    3.28    3.05    -7.02728    22.63548     6.21061
   379  O   6.0   -0.29    1.12    1.80    -6.39774    21.28022     7.99290
   380  C   4.0   -0.05    4.43    4.43    -6.10903    27.20988     6.39936
   381  C   4.0   -0.03    4.18    3.95    -4.13299    29.33603     5.88205
   382  C   4.0   -0.08    4.15    3.91    -5.53569    31.66303     6.74285
   383  C   4.0   -0.07    4.09    3.78    -1.73611    28.84903     7.44557
   384  H   1.0    0.07    1.06    1.44    -5.97914    26.40334     1.63509
   385  H   1.0    0.05    1.07    1.44    -3.52252    24.20650     5.93894
   386  H   1.0    0.04    1.03    1.43    -7.95128    27.76496     5.64792
   387  H   1.0    0.05    1.04    1.43    -6.27407    26.94493     8.43589
   388  H   1.0    0.04    1.05    1.44    -3.69121    29.42497     3.87491
   389  H   1.0    0.03    1.00    1.43    -4.37786    33.35132     6.55070
   390  H   1.0    0.03    1.00    1.43    -7.24236    31.91757     5.63577
   391  H   1.0    0.04    1.01    1.43    -6.04882    31.46784     8.72276
   392  H   1.0    0.04    1.00    1.43    -0.47377    30.46857     7.37142
   393  H   1.0    0.05    1.00    1.43    -2.22062    28.51764     9.41599
   394  H   1.0    0.04    1.00    1.43    -0.72370    27.19908     6.77169
   395  N   5.0   -0.20    3.20    1.96    -8.58372    17.32060     3.08888
   396  C   4.0    0.03    4.25    4.11    -7.27482    14.89846     2.54753
   397  C   4.0    0.15    3.42    3.08    -5.27680    14.43113     4.57408
   398  O   6.0   -0.31    1.26    1.80    -4.96180    12.29586     5.53975
   399  C   4.0   -0.05    4.29    4.18    -6.13959    15.04335    -0.11566
   400  C   4.0   -0.02    4.13    3.87    -4.28794    12.78273    -0.85197
   401  C   4.0   -0.07    4.09    3.78    -5.93509    10.42818    -1.13381
   402  C   4.0   -0.08    4.06    3.73    -2.62629    13.44596    -3.10763
   403  H   1.0    0.08    1.02    1.43    -8.66207    18.59076     1.65169
   404  H   1.0    0.04    1.05    1.44    -8.64843    13.36128     2.70415
   405  H   1.0    0.03    1.02    1.43    -7.68887    15.14033    -1.46541
   406  H   1.0    0.05    1.03    1.43    -5.07068    16.80798    -0.21068
   407  H   1.0    0.05    1.06    1.44    -3.04644    12.48982     0.77729
   408  H   1.0    0.05    1.00    1.43    -4.80181     8.77387    -1.55258
   409  H   1.0    0.05    1.00    1.43    -6.92764    10.07903     0.62490
   410  H   1.0    0.04    1.00    1.43    -7.30752    10.69655    -2.63711
   411  H   1.0    0.04    1.00    1.43    -1.24673    11.95414    -3.38235
   412  H   1.0    0.04    1.00    1.43    -3.75134    13.61696    -4.81180
   413  H   1.0    0.04    1.00    1.43    -1.65105    15.21254    -2.73053
   414  N   5.0   -0.13    3.46    2.06    -3.73655    16.29317     5.30928
   415  C   4.0    0.04    4.30    4.19    -1.75829    15.92952     7.16264
   416  C   4.0    0.10    3.22    3.04    -3.00232    15.14613     9.68334
   417  O   6.0   -0.29    1.12    1.80    -1.96855    13.49275    10.97586
   418  C   4.0   -0.05    4.23    4.07    -0.16119    18.38634     7.25439
   419  C   4.0   -0.05    4.13    3.86     2.13644    18.23069     9.06813
   420  C   4.0   -0.05    4.18    3.96     3.29310    20.92475     9.20257
   421  C   4.0   -0.03    4.11    3.82     5.47667    21.20954    11.04426
   422  N   5.0   -0.11    4.01    2.90     7.75898    20.00667     9.92954
   423  H   1.0    0.11    1.09    1.44    -3.86834    18.03322     4.50064
   424  H   1.0    0.05    1.06    1.44    -0.58491    14.31774     6.61588
   425  H   1.0    0.05    1.03    1.43     0.49434    18.75185     5.34102
   426  H   1.0    0.06    1.03    1.43    -1.39505    19.92171     7.86540
   427  H   1.0    0.05    1.02    1.43     1.50474    17.66174    10.94377
   428  H   1.0    0.04    1.02    1.43     3.48771    16.85396     8.37842
   429  H   1.0    0.04    1.03    1.43     3.92622    21.47330     7.32261
   430  H   1.0    0.05    1.03    1.43     1.78914    22.21064     9.78052
   431  H   1.0    0.05    1.02    1.43     5.86668    23.21021    11.35404
   432  H   1.0    0.05    1.02    1.43     5.07462    20.32493    12.85624
   433  H   1.0    0.09    1.04    1.43     9.39683    20.49562    10.85909
   434  H   1.0    0.05    0.99    1.43     7.48321    17.97852    10.02719
   435  H   1.0    0.06    1.03    1.43     7.94387    20.51872     8.07746
   436  N   5.0   -0.20    3.25    1.97    -5.11884     8.12718    10.23573
   437  C   4.0    0.03    4.25    4.10    -3.06750     6.21155    10.58691
   438  C   4.0    0.10    3.19    3.03    -2.07598     6.50726    13.25297
   439  O   6.0   -0.27    1.12    1.80    -2.14569     4.84136    14.83114
   440  C   4.0   -0.04    4.26    4.12    -1.23038     6.48314     8.41960
   441  C   4.0   -0.03    4.31    4.21    -2.77522     6.37975     6.01214
   442  C   4.0    0.16    3.21    3.04    -1.40816     5.62726     3.62205
   443  O   6.0   -0.28    1.21    1.80    -2.44377     4.23459     2.06472
   444  N   5.0   -0.18    3.19    1.95     0.86001     6.68297     3.19657
   445  H   1.0    0.11    1.02    1.43    -4.63868     9.84469     9.56837
   446  H   1.0    0.05    1.06    1.44    -4.02733     4.37403    10.52341
   447  H   1.0    0.07    1.04    1.43    -0.17474     8.24137     8.57059
   448  H   1.0    0.05    1.03    1.43     0.10601     4.91015     8.51358
   449  H   1.0    0.05    1.04    1.43    -4.34879     5.06511     6.24589
   450  H   1.0    0.06    1.04    1.43    -3.60090     8.24100     5.64777
   451  H   1.0    0.09    1.03    1.43     1.72440     7.66676     4.57576
   452  H   1.0    0.13    1.05    1.44     1.90622     5.84970     1.81221
   453  N   5.0   -0.22    3.21    1.96    16.29317    -3.73655    -5.30928
   454  C   4.0    0.03    4.19    3.98    15.92952    -1.75829    -7.16264
   455  C   4.0    0.07    3.18    3.03    15.14613    -3.00232    -9.68334
   456  O   6.0   -0.33    1.17    1.80    13.49275    -1.96855   -10.97586
   457  C   4.0   -0.05    4.23    4.07    18.38634    -0.16119    -7.25439
   458  C   4.0   -0.04    4.14    3.88    18.23069     2.13644    -9.06813
   459  C   4.0   -0.05    4.18    3.96    20.92475     3.29310    -9.20257
   460  C   4.0   -0.03    4.11    3.83    21.20954     5.47667   -11.04426
   461  N   5.0   -0.10    4.09    3.11    20.00667     7.75898    -9.92954
   462  H   1.0    0.08    1.03    1.43    18.03322    -3.86834    -4.50064
   463  H   1.0    0.05    1.06    1.44    14.31774    -0.58491    -6.61588
   464  H   1.0    0.04    1.03    1.43    18.75185     0.49434    -5.34102
   465  H   1.0    0.04    1.03    1.43    19.92171    -1.39505    -7.86540
   466  H   1.0    0.05    1.02    1.43    17.66174     1.50474   -10.94377
   467  H   1.0    0.06    1.03    1.43    16.85396     3.48771    -8.37842
   468  H   1.0    0.04    1.03    1.43    21.47330     3.92622    -7.32261
   469  H   1.0    0.04    1.03    1.43    22.21064     1.78914    -9.78052
   470  H   1.0    0.04    1.02    1.43    23.21021     5.86668   -11.35404
   471  H   1.0    0.06    1.02    1.43    20.32493     5.07462   -12.85624
   472  H   1.0    0.10    1.04    1.43    20.49562     9.39683   -10.85909
   473  H   1.0    0.11    1.16    1.46    17.97852     7.48321   -10.02719
   474  H   1.0    0.06    1.03    1.43    20.51872     7.94387    -8.07746
   475  N   5.0   -0.21    3.29    1.98     8.12718    -5.11884   -10.23573
   476  C   4.0    0.03    4.39    4.36     6.21155    -3.06750   -10.58691
   477  C   4.0    0.16    3.40    3.08     6.50726    -2.07598   -13.25297
   478  O   6.0   -0.29    1.24    1.80     4.84136    -2.14569   -14.83114
   479  C   4.0   -0.04    4.27    4.14     6.48314    -1.23038    -8.41960
   480  C   4.0   -0.03    4.31    4.21     6.37975    -2.77522    -6.01214
   481  C   4.0    0.16    3.21    3.04     5.62726    -1.40816    -3.62205
   482  O   6.0   -0.28    1.21    1.80     4.23459    -2.44377    -2.06472
   483  N   5.0   -0.18    3.19    1.95     6.68297     0.86001    -3.19657
   484  H   1.0    0.09    1.02    1.43     9.84469    -4.63868    -9.56837
   485  H   1.0    0.05    1.06    1.44     4.37403    -4.02733   -10.52341
   486  H   1.0    0.06    1.04    1.43     8.24137    -0.17474    -8.57059
   487  H   1.0    0.05    1.03    1.43     4.91015     0.10601    -8.51358
   488  H   1.0    0.05    1.04    1.43     5.06511    -4.34879    -6.24589
   489  H   1.0    0.04    1.03    1.43     8.24100    -3.60090    -5.64777
   490  H   1.0    0.09    1.03    1.43     7.66676     1.72440    -4.57576
   491  H   1.0    0.13    1.05    1.44     5.84970     1.90622    -1.81221
   492  N   5.0   -0.13    3.51    2.08     8.82520    -1.18659   -13.61423
   493  C   4.0    0.04    4.27    4.14    10.00505    -0.48341   -15.99660
   494  C   4.0    0.16    3.38    3.07    10.66072     2.39146   -15.99328
   495  O   6.0   -0.27    1.24    1.80     9.56620     3.89440   -17.37951
   496  C   4.0   -0.04    4.16    3.92     8.42738    -1.25274   -18.27931
   497  H   1.0    0.10    1.12    1.45    10.09854    -1.42568   -12.21202
   498  H   1.0    0.04    1.05    1.44    11.82555    -1.48547   -16.06051
   499  H   1.0    0.05    1.00    1.43     9.49163    -0.84022   -19.98961
   500  H   1.0    0.05    1.01    1.43     8.03320    -3.24815   -18.17523
   501  H   1.0    0.08    1.01    1.43     6.66460    -0.21127   -18.33303
   502  N   5.0   -0.13    3.29    1.98    12.58207     3.13576   -14.48086
   503  C   4.0    0.03    4.24    4.07    13.49648     5.70507   -14.81458
   504  C   4.0    0.23    3.14    3.03    15.37006     6.90807   -12.94177
   505  O   6.0   -0.30    1.22    1.80    16.90881     8.39700   -13.91397
   506  O   6.0   -0.33    1.35    1.80    15.25260     6.47036   -10.62379
   507  H   1.0    0.09    1.06    1.44    13.53937     1.87181   -13.42598
   508  H   1.0    0.06    1.03    1.43    14.37184     5.86975   -16.69055
   509  H   1.0    0.08    1.03    1.43    11.81858     6.92553   -14.85612
   510  H   1.0    0.10    1.07    1.44    11.84403    31.59156     9.87923
   511  H   1.0    0.07    1.05    1.44     1.30979     8.14585   -13.79979
   512  H   1.0    0.09    1.07    1.44    22.58640    30.71059    -9.92739
   513  H   1.0    0.05    1.04    1.44    20.33123    31.47007   -16.90112
   514  H   1.0    0.09    1.07    1.44    10.58288    38.11467   -18.77053
   515  H   1.0    0.05    1.04    1.44    14.69690    40.13364   -14.21817
   516  H   1.0    0.09    1.06    1.44    37.46733    13.83257    -7.14162
   517  H   1.0    0.05    1.04    1.43    32.10626    10.89431    -9.46256
   518  H   1.0    0.10    1.07    1.44    27.50310    12.66194    -1.51129
   519  H   1.0    0.05    1.05    1.44    23.85320     7.42107    -2.24137
   520  H   1.0    0.09    1.07    1.44    23.34920     9.16902     6.36360
   521  H   1.0    0.05    1.04    1.43    15.85134     4.17800     5.16289
   522  H   1.0    0.10    1.07    1.44    12.99404     9.06513    11.78453
   523  H   1.0    0.06    1.05    1.44     8.14585     1.30979    13.79979
   524  H   1.0    0.08    1.07    1.44    -7.68785    23.09958    -3.54947
   525  H   1.0    0.05    1.05    1.44    -8.69267    22.27643     5.39290
   526  H   1.0    0.09    1.07    1.44   -10.19864    17.00883     3.52178
   527  H   1.0    0.07    1.04    1.43    -4.60906    15.97028    10.24033
   528  H   1.0    0.10    1.07    1.44    -6.26797     7.53257     9.13187
   529  H   1.0    0.07    1.05    1.44    -1.30979     8.14585    13.79979
   530  H   1.0    0.09    1.07    1.44    15.20708    -3.51297    -4.01971
   531  H   1.0    0.05    1.04    1.43    15.97028    -4.60906   -10.24033
   532  H   1.0    0.09    1.07    1.44     7.53257    -6.26797    -9.13187

  Z AO/shell   Hii/eV     exponent
  1     Wed Apr 25 08:07:45 CEST 2018   EN: 2.200 GM2: 0.406  GM3: 0.0800  RAES: 1.40
     1s    -10.707211    1.230000
  6     Wed Apr 25 08:07:45 CEST 2018   EN: 2.550 GM2: 0.538  GM3: 0.1500  RAES: 3.00
     2s    -13.970922    2.096432
     2p    -10.063292    1.800000
  7     Wed Apr 25 08:07:45 CEST 2018   EN: 3.040 GM2: 0.461  GM3:-0.0640  RAES: 1.90
     2s    -16.686243    2.339881
     2p    -12.523956    2.014332
  8     Wed Apr 25 08:07:45 CEST 2018   EN: 3.440 GM2: 0.452  GM3:-0.0517  RAES: 1.80
     2s    -20.229985    2.439742
     2p    -15.503117    2.137023
 no old-style atom pair restraining (fixing) potential

molecular fragmentation (1/2 indicates fragments):
111111111111111111111111111111111111111111111111111111111111111111111111
111111111111111111111111111111111111111111111111111111111111111111111111
111111111111111111111111111111111111111111122222222222222222222222222222
222222222222222222222222222222222222222222222222222222222222222222222222
222222222222222222222222222222222222222222222222222222222222222222222222
222222222222222222222222222222222222222222222222222222222222222222222222
222222222222222222222222222222222222222222222222222222222222222222222222
2222211222222222222222222222
# atoms in fragment 1/2:   189   343
 fragment masses (1/2) :     1353.47     2197.64
CMA distance (Bohr)    :   8.816
constraining FC (au)   :  0.0500
           ------------------------------------------------- 
          |        Self-Consistent Charge Iterations        |
           ------------------------------------------------- 

 Ncao       : 1267
 Nao        : 1267
 Nshell     : 777
 Nel        : 1428
 T(el)      :   500.0
 intcut     :    35.0
 scfconv/Eh :  0.100E-06
   qconv/e  :  0.100E-04
 intneglect :  0.100E-08
 broydamp   :      0.400
 iter      E             dE          RMSdq      gap      omega  full diag
   1   -824.2017441 -0.824202E+03  0.476E+00    3.26       0.0  T
   2   -826.3730937 -0.217135E+01  0.221E+00    1.93       1.0  T
   3   -826.5265436 -0.153450E+00  0.127E+00    2.03       1.0  T
   4   -826.6759241 -0.149381E+00  0.280E-01    1.35       1.0  T
   5   -826.6841606 -0.823645E-02  0.139E-01    1.51       1.0  T
   6   -826.6859912 -0.183065E-02  0.567E-02    1.48       1.0  T
   7   -826.6863384 -0.347195E-03  0.260E-02    1.52       1.0  T
   8   -826.6863911 -0.527166E-04  0.105E-02    1.53       1.0  T
   9   -826.6864059 -0.147659E-04  0.484E-03    1.54       1.0  T
  10   -826.6864080 -0.206783E-05  0.208E-03    1.54       2.1  T
  11   -826.6864086 -0.600473E-06  0.857E-04    1.54       5.1  T
  12   -826.6864086 -0.762270E-07  0.377E-04    1.54      11.5  T
  13   -826.6864087 -0.148200E-07  0.192E-04    1.54      22.5  T
  14   -826.6864087 -0.392208E-08  0.711E-05    1.54      61.0  T
  15   -826.6864087 -0.537057E-09  0.320E-05    1.54     135.5  T
speedup 11.71
cpu  time for SCC   36.86 s
wall time for SCC    3.15 s

   *** convergence criteria satisfied after 15 iterations ***

          eigenvalues
 #    :         702        703        704        705        706        707        708        709
 occ. :        2.000      2.000      2.000      2.000      2.000      2.000      2.000      2.000
 eps  :       -10.207    -10.134    -10.050    -10.048    -10.037    -10.025     -9.863     -9.852
 #    :         710        711        712        713        714        715        716        717
 occ. :        2.000      2.000      2.000      2.000      2.000      0.000      0.000      0.000
 eps  :        -9.825     -9.819     -9.732     -9.711     -9.669     -8.132     -8.103     -8.026
 #    :         718        719        720        721        722        723        724        725
 occ. :        0.000      0.000      0.000      0.000      0.000      0.000      0.000      0.000
 eps  :        -7.835     -7.828     -7.785     -7.782     -7.697     -7.688     -7.671     -7.341


   #   Z            q   n(s)   n(p)   n(d)      C6AA      α(0)
   1   7 N     -0.398  1.312  4.085  0.000    30.309     8.176
   2   6 C      0.026  1.070  2.904  0.000    20.154     6.395
   3   6 C      0.260  1.052  2.687  0.000    22.614     7.788
   4   8 O     -0.497  1.739  4.758  0.000    23.729     6.531
   5   6 C     -0.050  1.056  2.994  0.000    21.471     6.597
   6   6 C     -0.089  1.065  3.024  0.000    22.205     6.709
   7   6 C      0.368  1.025  2.606  0.000    20.753     7.455
   8   8 O     -0.640  1.769  4.871  0.000    27.121     6.982
   9   8 O     -0.660  1.779  4.881  0.000    27.640     7.049
  10   1 H      0.169  0.831  0.000  0.000     1.281     1.773
  11   1 H      0.022  0.978  0.000  0.000     2.703     2.571
  12   1 H      0.033  0.967  0.000  0.000     2.547     2.496
  13   1 H      0.044  0.956  0.000  0.000     2.400     2.423
  14   1 H      0.031  0.969  0.000  0.000     2.566     2.505
  15   1 H      0.010  0.990  0.000  0.000     2.886     2.657
  16   7 N     -0.161  1.233  3.928  0.000    24.484     7.349
  17   6 C      0.016  1.059  2.925  0.000    20.302     6.414
  18   6 C      0.268  1.047  2.686  0.000    22.480     7.764
  19   8 O     -0.468  1.733  4.735  0.000    23.084     6.442
  20   6 C     -0.088  1.069  3.020  0.000    22.174     6.703
  21   6 C     -0.011  1.050  2.961  0.000    20.737     6.477
  22   6 C     -0.120  1.042  3.078  0.000    22.822     6.806
  23   6 C     -0.120  1.041  3.079  0.000    22.833     6.808
  24   1 H      0.218  0.782  0.000  0.000     1.020     1.582
  25   1 H      0.093  0.907  0.000  0.000     1.849     2.126
  26   1 H      0.061  0.939  0.000  0.000     2.182     2.310
  27   1 H      0.086  0.914  0.000  0.000     1.919     2.166
  28   1 H      0.028  0.972  0.000  0.000     2.617     2.530
  29   1 H      0.045  0.955  0.000  0.000     2.381     2.413
  30   1 H      0.036  0.964  0.000  0.000     2.502     2.474
  31   1 H      0.058  0.942  0.000  0.000     2.220     2.330
  32   1 H      0.044  0.956  0.000  0.000     2.401     2.423
  33   1 H      0.062  0.938  0.000  0.000     2.171     2.304
  34   1 H      0.034  0.966  0.000  0.000     2.528     2.487
  35   7 N     -0.181  1.243  3.938  0.000    24.923     7.414
  36   6 C      0.026  1.056  2.918  0.000    20.133     6.388
  37   6 C      0.271  1.049  2.680  0.000    22.416     7.754
  38   8 O     -0.499  1.756  4.743  0.000    23.768     6.536
  39   6 C     -0.114  1.060  3.054  0.000    22.656     6.772
  40   6 C      0.295  1.017  2.689  0.000    21.998     7.680
  41   8 O     -0.543  1.771  4.772  0.000    24.769     6.673
  42   7 N     -0.285  1.267  4.018  0.000    27.360     7.769
  43   1 H      0.213  0.787  0.000  0.000     1.042     1.599
  44   1 H      0.105  0.895  0.000  0.000     1.742     2.064
  45   1 H      0.103  0.897  0.000  0.000     1.762     2.076
  46   1 H      0.056  0.944  0.000  0.000     2.250     2.346
  47   1 H      0.266  0.734  0.000  0.000     0.825     1.423
  48   1 H      0.227  0.773  0.000  0.000     0.979     1.550
  49   7 N     -0.170  1.245  3.925  0.000    24.681     7.378
  50   6 C      0.033  1.056  2.911  0.000    20.025     6.372
  51   6 C      0.270  1.042  2.688  0.000    22.449     7.759
  52   8 O     -0.486  1.742  4.744  0.000    23.486     6.498
  53   6 C     -0.062  1.056  3.006  0.000    21.676     6.627
  54   6 C     -0.085  1.061  3.024  0.000    22.121     6.697
  55   6 C      0.365  1.027  2.608  0.000    20.805     7.464
  56   8 O     -0.624  1.750  4.874  0.000    26.706     6.929
  57   8 O     -0.649  1.788  4.861  0.000    27.344     7.011
  58   1 H      0.193  0.807  0.000  0.000     1.143     1.675
  59   1 H      0.051  0.949  0.000  0.000     2.312     2.378
  60   1 H      0.064  0.936  0.000  0.000     2.155     2.296
  61   1 H      0.053  0.947  0.000  0.000     2.289     2.366
  62   1 H      0.007  0.993  0.000  0.000     2.942     2.682
  63   1 H      0.021  0.979  0.000  0.000     2.720     2.579
  64   7 N     -0.192  1.253  3.939  0.000    25.159     7.450
  65   6 C      0.022  1.067  2.911  0.000    20.216     6.404
  66   6 C      0.263  1.056  2.681  0.000    22.573     7.780
  67   8 O     -0.475  1.741  4.734  0.000    23.242     6.464
  68   6 C     -0.132  1.044  3.089  0.000    23.102     6.854
  69   1 H      0.225  0.775  0.000  0.000     0.987     1.556
  70   1 H      0.075  0.925  0.000  0.000     2.035     2.231
  71   1 H      0.081  0.919  0.000  0.000     1.965     2.192
  72   1 H      0.073  0.927  0.000  0.000     2.048     2.238
  73   1 H      0.079  0.921  0.000  0.000     1.987     2.204
  74   7 N     -0.184  1.249  3.936  0.000    24.989     7.424
  75   6 C      0.028  1.045  2.927  0.000    20.101     6.383
  76   6 C      0.274  1.046  2.680  0.000    22.368     7.745
  77   8 O     -0.493  1.745  4.748  0.000    23.636     6.518
  78   6 C     -0.086  1.062  3.024  0.000    22.116     6.691
  79   6 C     -0.023  1.061  2.962  0.000    20.952     6.511
  80   6 C     -0.125  1.043  3.082  0.000    22.923     6.822
  81   6 C     -0.133  1.044  3.089  0.000    23.109     6.855
  82   1 H      0.222  0.778  0.000  0.000     1.001     1.567
  83   1 H      0.092  0.908  0.000  0.000     1.857     2.131
  84   1 H      0.052  0.948  0.000  0.000     2.300     2.372
  85   1 H      0.068  0.932  0.000  0.000     2.112     2.273
  86   1 H      0.058  0.942  0.000  0.000     2.220     2.330
  87   1 H      0.058  0.942  0.000  0.000     2.219     2.330
  88   1 H      0.033  0.967  0.000  0.000     2.540     2.492
  89   1 H      0.055  0.945  0.000  0.000     2.257     2.349
  90   1 H      0.065  0.935  0.000  0.000     2.139     2.287
  91   1 H      0.051  0.949  0.000  0.000     2.305     2.374
  92   1 H      0.047  0.953  0.000  0.000     2.361     2.403
  93   7 N     -0.204  1.260  3.944  0.000    25.427     7.489
  94   6 C      0.026  1.066  2.909  0.000    20.149     6.393
  95   6 C      0.275  1.038  2.687  0.000    22.350     7.742
  96   8 O     -0.534  1.746  4.788  0.000    24.550     6.643
  97   6 C     -0.044  1.043  3.000  0.000    21.354     6.578
  98   6 C     -0.105  1.061  3.044  0.000    22.508     6.754
  99   6 C      0.361  1.024  2.616  0.000    20.881     7.478
 100   8 O     -0.642  1.800  4.842  0.000    27.180     6.990
 101   8 O     -0.608  1.746  4.862  0.000    26.326     6.879
 102   1 H      0.209  0.791  0.000  0.000     1.061     1.613
 103   1 H      0.076  0.924  0.000  0.000     2.018     2.222
 104   1 H      0.027  0.973  0.000  0.000     2.625     2.534
 105   1 H      0.040  0.960  0.000  0.000     2.443     2.444
 106   1 H      0.068  0.932  0.000  0.000     2.113     2.273
 107   1 H      0.065  0.935  0.000  0.000     2.140     2.288
 108   7 N     -0.176  1.257  3.919  0.000    24.817     7.399
 109   6 C      0.033  1.065  2.902  0.000    20.026     6.373
 110   6 C      0.272  1.050  2.678  0.000    22.410     7.752
 111   8 O     -0.522  1.755  4.767  0.000    24.269     6.605
 112   6 C     -0.087  1.069  3.019  0.000    22.169     6.704
 113   6 C     -0.010  1.064  2.946  0.000    20.728     6.477
 114   6 C     -0.122  1.039  3.083  0.000    22.887     6.822
 115   6 C     -0.125  1.042  3.083  0.000    22.967     6.834
 116   1 H      0.229  0.771  0.000  0.000     0.969     1.542
 117   1 H      0.064  0.936  0.000  0.000     2.156     2.296
 118   1 H      0.065  0.935  0.000  0.000     2.146     2.291
 119   1 H      0.063  0.937  0.000  0.000     2.169     2.303
 120   1 H      0.033  0.967  0.000  0.000     2.539     2.492
 121   1 H      0.050  0.950  0.000  0.000     2.316     2.380
 122   1 H      0.034  0.966  0.000  0.000     2.524     2.485
 123   1 H      0.040  0.960  0.000  0.000     2.454     2.450
 124   1 H      0.054  0.946  0.000  0.000     2.269     2.355
 125   1 H      0.058  0.942  0.000  0.000     2.225     2.333
 126   1 H      0.053  0.947  0.000  0.000     2.277     2.360
 127   7 N     -0.174  1.246  3.928  0.000    24.767     7.391
 128   6 C      0.018  1.069  2.913  0.000    20.293     6.416
 129   6 C      0.273  1.050  2.677  0.000    22.381     7.747
 130   8 O     -0.509  1.752  4.757  0.000    23.987     6.566
 131   6 C     -0.085  1.065  3.020  0.000    22.113     6.695
 132   6 C     -0.083  1.056  3.027  0.000    22.097     6.694
 133   6 C     -0.099  1.058  3.041  0.000    22.386     6.736
 134   6 C     -0.054  1.060  2.995  0.000    21.649     6.642
 135   7 N     -0.144  1.236  3.908  0.000    24.098     7.291
 136   1 H      0.219  0.781  0.000  0.000     1.014     1.577
 137   1 H      0.091  0.909  0.000  0.000     1.874     2.141
 138   1 H      0.081  0.919  0.000  0.000     1.967     2.193
 139   1 H      0.061  0.939  0.000  0.000     2.192     2.315
 140   1 H      0.052  0.948  0.000  0.000     2.289     2.366
 141   1 H      0.072  0.928  0.000  0.000     2.068     2.249
 142   1 H      0.085  0.915  0.000  0.000     1.924     2.169
 143   1 H      0.086  0.914  0.000  0.000     1.923     2.169
 144   1 H      0.133  0.867  0.000  0.000     1.512     1.923
 145   1 H      0.119  0.881  0.000  0.000     1.624     1.993
 146   1 H      0.308  0.692  0.000  0.000     0.691     1.302
 147   1 H      0.297  0.703  0.000  0.000     0.723     1.333
 148   1 H      0.287  0.713  0.000  0.000     0.754     1.360
 149   7 N     -0.182  1.246  3.936  0.000    24.950     7.419
 150   6 C      0.053  1.042  2.905  0.000    19.689     6.316
 151   6 C      0.277  1.044  2.678  0.000    22.311     7.737
 152   8 O     -0.534  1.757  4.777  0.000    24.551     6.643
 153   6 C     -0.095  1.058  3.037  0.000    22.287     6.717
 154   6 C      0.371  1.019  2.610  0.000    20.714     7.448
 155   8 O     -0.574  1.764  4.810  0.000    25.499     6.770
 156   8 O     -0.592  1.740  4.852  0.000    25.923     6.826
 157   1 H      0.215  0.785  0.000  0.000     1.033     1.592
 158   1 H      0.069  0.931  0.000  0.000     2.097     2.265
 159   1 H      0.045  0.955  0.000  0.000     2.388     2.416
 160   1 H      0.037  0.963  0.000  0.000     2.487     2.466
 161   7 N     -0.192  1.246  3.946  0.000    25.169     7.451
 162   6 C      0.050  1.048  2.902  0.000    19.732     6.325
 163   6 C      0.283  1.044  2.673  0.000    22.202     7.716
 164   8 O     -0.484  1.738  4.746  0.000    23.442     6.492
 165   6 C     -0.124  1.037  3.087  0.000    22.928     6.827
 166   1 H      0.219  0.781  0.000  0.000     1.013     1.576
 167   1 H      0.049  0.951  0.000  0.000     2.334     2.389
 168   1 H      0.092  0.908  0.000  0.000     1.860     2.133
 169   1 H      0.067  0.933  0.000  0.000     2.116     2.275
 170   1 H      0.054  0.946  0.000  0.000     2.275     2.359
 171   7 N     -0.171  1.248  3.923  0.000    24.708     7.383
 172   6 C      0.032  1.064  2.904  0.000    20.046     6.375
 173   6 C      0.208  1.077  2.714  0.000    23.580     7.953
 174   8 O     -0.355  1.755  4.601  0.000    20.810     6.116
 175   6 C     -0.072  1.049  3.023  0.000    21.873     6.658
 176   6 C     -0.102  1.053  3.048  0.000    22.424     6.740
 177   6 C      0.282  1.039  2.679  0.000    22.217     7.718
 178   8 O     -0.480  1.760  4.720  0.000    23.348     6.478
 179   7 N     -0.280  1.273  4.007  0.000    27.226     7.749
 180   1 H      0.210  0.790  0.000  0.000     1.055     1.609
 181   1 H      0.084  0.916  0.000  0.000     1.940     2.178
 182   1 H      0.079  0.921  0.000  0.000     1.986     2.204
 183   1 H      0.073  0.927  0.000  0.000     2.057     2.243
 184   1 H      0.059  0.941  0.000  0.000     2.214     2.327
 185   1 H      0.095  0.905  0.000  0.000     1.832     2.117
 186   1 H      0.220  0.780  0.000  0.000     1.011     1.575
 187   1 H      0.224  0.776  0.000  0.000     0.989     1.558
 188   8 O     -0.588  1.742  4.846  0.000    24.913     6.736
 189   1 H      0.321  0.679  0.000  0.000     0.661     1.277
 190   1 H      0.319  0.681  0.000  0.000     0.666     1.282
 191   8 O     -0.648  1.761  4.887  0.000    26.362     6.930
 192   1 H      0.326  0.674  0.000  0.000     0.648     1.264
 193   1 H      0.323  0.677  0.000  0.000     0.655     1.272
 194   8 O     -0.601  1.744  4.857  0.000    25.216     6.777
 195   1 H      0.278  0.722  0.000  0.000     0.792     1.398
 196   1 H      0.311  0.689  0.000  0.000     0.688     1.303
 197   8 O     -0.652  1.761  4.890  0.000    26.454     6.942
 198   1 H      0.325  0.675  0.000  0.000     0.650     1.267
 199   1 H      0.293  0.707  0.000  0.000     0.744     1.355
 200   8 O     -0.614  1.758  4.856  0.000    25.528     6.819
 201   1 H      0.290  0.710  0.000  0.000     0.752     1.362
 202   1 H      0.339  0.661  0.000  0.000     0.615     1.232
 203   8 O     -0.636  1.738  4.898  0.000    26.057     6.889
 204   1 H      0.295  0.705  0.000  0.000     0.737     1.348
 205   1 H      0.314  0.686  0.000  0.000     0.680     1.296
 206   8 O     -0.584  1.739  4.845  0.000    24.804     6.722
 207   1 H      0.284  0.716  0.000  0.000     0.772     1.380
 208   1 H      0.300  0.700  0.000  0.000     0.721     1.334
 209   8 O     -0.641  1.765  4.876  0.000    26.186     6.907
 210   1 H      0.321  0.679  0.000  0.000     0.661     1.277
 211   1 H      0.307  0.693  0.000  0.000     0.699     1.313
 212   8 O     -0.624  1.747  4.877  0.000    25.772     6.852
 213   1 H      0.297  0.703  0.000  0.000     0.729     1.341
 214   1 H      0.301  0.699  0.000  0.000     0.717     1.330
 215   8 O     -0.633  1.752  4.881  0.000    25.997     6.882
 216   1 H      0.301  0.699  0.000  0.000     0.719     1.332
 217   1 H      0.309  0.691  0.000  0.000     0.696     1.310
 218   7 N     -0.406  1.325  4.081  0.000    30.539     8.207
 219   6 C      0.032  1.057  2.911  0.000    20.057     6.379
 220   6 C      0.200  1.088  2.712  0.000    23.737     7.979
 221   8 O     -0.350  1.737  4.614  0.000    20.715     6.102
 222   6 C     -0.085  1.065  3.020  0.000    22.113     6.694
 223   6 C     -0.094  1.064  3.030  0.000    22.289     6.722
 224   6 C     -0.033  1.057  2.976  0.000    21.252     6.580
 225   7 N     -0.141  1.216  3.925  0.000    24.054     7.284
 226   6 C      0.233  1.022  2.745  0.000    23.121     7.873
 227   7 N     -0.239  1.247  3.992  0.000    26.258     7.610
 228   7 N     -0.260  1.236  4.025  0.000    26.749     7.681
 229   1 H      0.184  0.816  0.000  0.000     1.193     1.711
 230   1 H      0.055  0.945  0.000  0.000     2.255     2.349
 231   1 H      0.060  0.940  0.000  0.000     2.201     2.320
 232   1 H      0.063  0.937  0.000  0.000     2.168     2.302
 233   1 H      0.073  0.927  0.000  0.000     2.054     2.241
 234   1 H      0.075  0.925  0.000  0.000     2.034     2.230
 235   1 H      0.076  0.924  0.000  0.000     2.021     2.223
 236   1 H      0.079  0.921  0.000  0.000     1.991     2.207
 237   1 H      0.243  0.757  0.000  0.000     0.912     1.496
 238   1 H      0.234  0.766  0.000  0.000     0.948     1.525
 239   1 H      0.227  0.773  0.000  0.000     0.979     1.550
 240   1 H      0.264  0.736  0.000  0.000     0.831     1.428
 241   1 H      0.247  0.753  0.000  0.000     0.894     1.481
 242   7 N     -0.395  1.315  4.080  0.000    30.247     8.168
 243   6 C      0.039  1.057  2.904  0.000    19.938     6.361
 244   6 C      0.196  1.098  2.706  0.000    23.810     7.991
 245   8 O     -0.395  1.773  4.622  0.000    21.583     6.229
 246   6 C     -0.085  1.067  3.019  0.000    22.132     6.698
 247   6 C     -0.085  1.061  3.024  0.000    22.132     6.699
 248   6 C     -0.040  1.071  2.969  0.000    21.386     6.600
 249   7 N     -0.155  1.221  3.934  0.000    24.344     7.328
 250   6 C      0.231  1.014  2.754  0.000    23.144     7.877
 251   7 N     -0.262  1.234  4.027  0.000    26.782     7.686
 252   7 N     -0.278  1.246  4.032  0.000    27.176     7.742
 253   1 H      0.176  0.824  0.000  0.000     1.238     1.743
 254   1 H      0.055  0.945  0.000  0.000     2.255     2.348
 255   1 H      0.079  0.921  0.000  0.000     1.989     2.205
 256   1 H      0.071  0.929  0.000  0.000     2.071     2.251
 257   1 H      0.064  0.936  0.000  0.000     2.153     2.295
 258   1 H      0.074  0.926  0.000  0.000     2.041     2.234
 259   1 H      0.111  0.889  0.000  0.000     1.688     2.032
 260   1 H      0.077  0.923  0.000  0.000     2.013     2.219
 261   1 H      0.224  0.776  0.000  0.000     0.991     1.559
 262   1 H      0.242  0.758  0.000  0.000     0.917     1.500
 263   1 H      0.228  0.772  0.000  0.000     0.974     1.546
 264   1 H      0.228  0.772  0.000  0.000     0.974     1.546
 265   1 H      0.245  0.755  0.000  0.000     0.903     1.489
 266   7 N     -0.394  1.330  4.065  0.000    30.221     8.165
 267   6 C      0.033  1.064  2.903  0.000    20.051     6.380
 268   6 C      0.196  1.104  2.699  0.000    23.813     7.992
 269   8 O     -0.395  1.769  4.626  0.000    21.587     6.229
 270   1 H      0.179  0.821  0.000  0.000     1.221     1.731
 271   1 H      0.053  0.947  0.000  0.000     2.284     2.364
 272   6 C     -0.081  1.063  3.018  0.000    22.044     6.685
 273   6 C     -0.077  1.054  3.023  0.000    21.974     6.675
 274   6 C     -0.013  1.053  2.961  0.000    20.908     6.527
 275   7 N     -0.181  1.246  3.935  0.000    24.911     7.413
 276   6 C      0.235  1.026  2.739  0.000    23.082     7.866
 277   7 N     -0.261  1.252  4.009  0.000    26.767     7.684
 278   7 N     -0.263  1.244  4.019  0.000    26.814     7.691
 279   1 H      0.077  0.923  0.000  0.000     2.016     2.220
 280   1 H      0.075  0.925  0.000  0.000     2.035     2.231
 281   1 H      0.088  0.912  0.000  0.000     1.899     2.155
 282   1 H      0.043  0.957  0.000  0.000     2.407     2.426
 283   1 H      0.050  0.950  0.000  0.000     2.323     2.383
 284   1 H      0.090  0.910  0.000  0.000     1.878     2.143
 285   1 H      0.249  0.751  0.000  0.000     0.886     1.474
 286   1 H      0.232  0.768  0.000  0.000     0.956     1.532
 287   1 H      0.239  0.761  0.000  0.000     0.926     1.507
 288   1 H      0.223  0.777  0.000  0.000     0.996     1.563
 289   1 H      0.225  0.775  0.000  0.000     0.988     1.557
 290   7 N     -0.400  1.317  4.084  0.000    30.383     8.186
 291   6 C      0.047  1.053  2.900  0.000    19.812     6.341
 292   6 C      0.185  1.095  2.720  0.000    24.041     8.031
 293   8 O     -0.378  1.753  4.624  0.000    21.238     6.179
 294   6 C     -0.056  1.054  3.002  0.000    21.564     6.609
 295   6 C     -0.093  1.061  3.032  0.000    22.281     6.721
 296   6 C      0.360  1.029  2.612  0.000    20.896     7.481
 297   8 O     -0.603  1.768  4.836  0.000    26.205     6.863
 298   8 O     -0.577  1.739  4.838  0.000    25.558     6.778
 299   1 H      0.199  0.801  0.000  0.000     1.111     1.651
 300   1 H      0.015  0.985  0.000  0.000     2.806     2.620
 301   1 H      0.063  0.937  0.000  0.000     2.169     2.303
 302   1 H      0.039  0.961  0.000  0.000     2.468     2.457
 303   1 H      0.009  0.991  0.000  0.000     2.903     2.664
 304   1 H      0.048  0.952  0.000  0.000     2.340     2.392
 305   7 N     -0.389  1.316  4.073  0.000    30.057     8.142
 306   6 C      0.030  1.065  2.905  0.000    20.083     6.383
 307   6 C      0.268  1.043  2.689  0.000    22.482     7.764
 308   8 O     -0.529  1.746  4.783  0.000    24.436     6.628
 309   6 C     -0.035  1.045  2.990  0.000    21.198     6.554
 310   6 C     -0.078  1.060  3.019  0.000    21.993     6.676
 311   6 C      0.367  1.025  2.608  0.000    20.782     7.461
 312   8 O     -0.652  1.776  4.876  0.000    27.436     7.023
 313   8 O     -0.678  1.782  4.896  0.000    28.128     7.111
 314   1 H      0.148  0.852  0.000  0.000     1.415     1.863
 315   1 H      0.037  0.963  0.000  0.000     2.493     2.469
 316   1 H      0.032  0.968  0.000  0.000     2.556     2.500
 317   1 H      0.008  0.992  0.000  0.000     2.926     2.675
 318   1 H      0.017  0.983  0.000  0.000     2.778     2.607
 319   1 H      0.032  0.968  0.000  0.000     2.559     2.502
 320   7 N     -0.160  1.252  3.908  0.000    24.471     7.347
 321   6 C      0.032  1.064  2.904  0.000    20.044     6.376
 322   6 C      0.200  1.092  2.708  0.000    23.750     7.981
 323   8 O     -0.363  1.754  4.608  0.000    20.948     6.136
 324   6 C     -0.088  1.071  3.017  0.000    22.184     6.706
 325   6 C     -0.013  1.066  2.948  0.000    20.784     6.486
 326   6 C     -0.122  1.039  3.084  0.000    22.905     6.824
 327   6 C     -0.127  1.042  3.084  0.000    22.995     6.838
 328   1 H      0.237  0.763  0.000  0.000     0.933     1.513
 329   1 H      0.079  0.921  0.000  0.000     1.985     2.203
 330   1 H      0.076  0.924  0.000  0.000     2.020     2.223
 331   1 H      0.071  0.929  0.000  0.000     2.076     2.253
 332   1 H      0.036  0.964  0.000  0.000     2.503     2.474
 333   1 H      0.049  0.951  0.000  0.000     2.331     2.388
 334   1 H      0.040  0.960  0.000  0.000     2.448     2.447
 335   1 H      0.037  0.963  0.000  0.000     2.493     2.469
 336   1 H      0.054  0.946  0.000  0.000     2.276     2.359
 337   1 H      0.061  0.939  0.000  0.000     2.182     2.310
 338   1 H      0.053  0.947  0.000  0.000     2.279     2.361
 339   7 N     -0.400  1.304  4.097  0.000    30.384     8.187
 340   6 C      0.040  1.052  2.909  0.000    19.925     6.358
 341   6 C      0.268  1.052  2.680  0.000    22.466     7.761
 342   8 O     -0.494  1.739  4.754  0.000    23.647     6.520
 343   6 C     -0.116  1.038  3.078  0.000    22.775     6.804
 344   1 H      0.171  0.829  0.000  0.000     1.265     1.762
 345   1 H      0.032  0.968  0.000  0.000     2.556     2.500
 346   1 H      0.064  0.936  0.000  0.000     2.148     2.292
 347   1 H      0.042  0.958  0.000  0.000     2.421     2.433
 348   1 H      0.052  0.948  0.000  0.000     2.291     2.367
 349   7 N     -0.168  1.251  3.917  0.000    24.637     7.372
 350   6 C      0.022  1.066  2.912  0.000    20.207     6.401
 351   6 C      0.204  1.079  2.717  0.000    23.664     7.967
 352   8 O     -0.360  1.757  4.602  0.000    20.891     6.128
 353   6 C     -0.074  1.050  3.024  0.000    21.904     6.662
 354   6 C     -0.107  1.055  3.051  0.000    22.522     6.754
 355   6 C      0.282  1.039  2.679  0.000    22.223     7.719
 356   8 O     -0.485  1.762  4.723  0.000    23.459     6.494
 357   7 N     -0.287  1.276  4.011  0.000    27.412     7.776
 358   1 H      0.229  0.771  0.000  0.000     0.970     1.543
 359   1 H      0.090  0.910  0.000  0.000     1.881     2.145
 360   1 H      0.078  0.922  0.000  0.000     2.003     2.213
 361   1 H      0.069  0.931  0.000  0.000     2.094     2.263
 362   1 H      0.066  0.934  0.000  0.000     2.134     2.284
 363   1 H      0.100  0.900  0.000  0.000     1.788     2.091
 364   1 H      0.226  0.774  0.000  0.000     0.985     1.554
 365   1 H      0.225  0.775  0.000  0.000     0.986     1.556
 366   7 N     -0.402  1.325  4.077  0.000    30.432     8.193
 367   6 C      0.023  1.064  2.913  0.000    20.207     6.404
 368   6 C      0.253  1.064  2.683  0.000    22.748     7.810
 369   8 O     -0.488  1.757  4.732  0.000    23.527     6.503
 370   6 C     -0.132  1.046  3.086  0.000    23.089     6.852
 371   1 H      0.181  0.819  0.000  0.000     1.208     1.721
 372   1 H      0.050  0.950  0.000  0.000     2.316     2.380
 373   1 H      0.041  0.959  0.000  0.000     2.441     2.443
 374   1 H      0.078  0.922  0.000  0.000     1.995     2.209
 375   1 H      0.060  0.940  0.000  0.000     2.204     2.322
 376   7 N     -0.174  1.244  3.930  0.000    24.764     7.391
 377   6 C      0.032  1.041  2.927  0.000    20.049     6.376
 378   6 C      0.203  1.077  2.720  0.000    23.685     7.971
 379   8 O     -0.384  1.766  4.618  0.000    21.369     6.198
 380   6 C     -0.079  1.062  3.017  0.000    21.981     6.671
 381   6 C     -0.015  1.062  2.953  0.000    20.812     6.489
 382   6 C     -0.120  1.041  3.079  0.000    22.827     6.808
 383   6 C     -0.106  1.036  3.070  0.000    22.578     6.776
 384   1 H      0.228  0.772  0.000  0.000     0.975     1.547
 385   1 H      0.078  0.922  0.000  0.000     1.998     2.211
 386   1 H      0.073  0.927  0.000  0.000     2.049     2.238
 387   1 H      0.054  0.946  0.000  0.000     2.269     2.355
 388   1 H      0.060  0.940  0.000  0.000     2.197     2.318
 389   1 H      0.046  0.954  0.000  0.000     2.365     2.405
 390   1 H      0.059  0.941  0.000  0.000     2.212     2.326
 391   1 H      0.035  0.965  0.000  0.000     2.520     2.482
 392   1 H      0.031  0.969  0.000  0.000     2.576     2.510
 393   1 H      0.025  0.975  0.000  0.000     2.652     2.547
 394   1 H      0.038  0.962  0.000  0.000     2.470     2.458
 395   7 N     -0.400  1.332  4.068  0.000    30.386     8.187
 396   6 C      0.035  1.062  2.903  0.000    20.014     6.373
 397   6 C      0.264  1.059  2.678  0.000    22.556     7.777
 398   8 O     -0.536  1.764  4.772  0.000    24.605     6.651
 399   6 C     -0.087  1.073  3.014  0.000    22.155     6.702
 400   6 C     -0.015  1.063  2.952  0.000    20.807     6.489
 401   6 C     -0.120  1.039  3.081  0.000    22.854     6.817
 402   6 C     -0.123  1.041  3.081  0.000    22.909     6.826
 403   1 H      0.167  0.833  0.000  0.000     1.294     1.782
 404   1 H      0.038  0.962  0.000  0.000     2.477     2.461
 405   1 H      0.067  0.933  0.000  0.000     2.115     2.274
 406   1 H      0.061  0.939  0.000  0.000     2.185     2.312
 407   1 H      0.020  0.980  0.000  0.000     2.731     2.584
 408   1 H      0.033  0.967  0.000  0.000     2.537     2.491
 409   1 H      0.033  0.967  0.000  0.000     2.548     2.496
 410   1 H      0.055  0.945  0.000  0.000     2.264     2.353
 411   1 H      0.032  0.968  0.000  0.000     2.561     2.503
 412   1 H      0.060  0.940  0.000  0.000     2.196     2.317
 413   1 H      0.051  0.949  0.000  0.000     2.310     2.377
 414   7 N     -0.160  1.243  3.917  0.000    24.458     7.345
 415   6 C      0.021  1.065  2.914  0.000    20.236     6.407
 416   6 C      0.206  1.091  2.703  0.000    23.633     7.961
 417   8 O     -0.375  1.761  4.614  0.000    21.187     6.171
 418   6 C     -0.081  1.066  3.015  0.000    22.040     6.684
 419   6 C     -0.084  1.057  3.027  0.000    22.105     6.695
 420   6 C     -0.092  1.056  3.036  0.000    22.245     6.715
 421   6 C     -0.035  1.055  2.980  0.000    21.293     6.587
 422   7 N     -0.134  1.234  3.900  0.000    23.894     7.260
 423   1 H      0.230  0.770  0.000  0.000     0.966     1.539
 424   1 H      0.099  0.901  0.000  0.000     1.791     2.093
 425   1 H      0.082  0.918  0.000  0.000     1.962     2.191
 426   1 H      0.074  0.926  0.000  0.000     2.039     2.233
 427   1 H      0.058  0.942  0.000  0.000     2.227     2.334
 428   1 H      0.065  0.935  0.000  0.000     2.146     2.291
 429   1 H      0.074  0.926  0.000  0.000     2.046     2.237
 430   1 H      0.087  0.913  0.000  0.000     1.906     2.159
 431   1 H      0.093  0.907  0.000  0.000     1.851     2.128
 432   1 H      0.116  0.884  0.000  0.000     1.644     2.005
 433   1 H      0.287  0.713  0.000  0.000     0.755     1.361
 434   1 H      0.292  0.708  0.000  0.000     0.739     1.347
 435   1 H      0.264  0.736  0.000  0.000     0.830     1.427
 436   7 N     -0.392  1.319  4.074  0.000    30.164     8.157
 437   6 C      0.036  1.062  2.902  0.000    19.975     6.365
 438   6 C      0.212  1.083  2.706  0.000    23.520     7.942
 439   8 O     -0.376  1.752  4.625  0.000    21.209     6.174
 440   6 C     -0.067  1.049  3.018  0.000    21.778     6.643
 441   6 C     -0.092  1.053  3.039  0.000    22.249     6.713
 442   6 C      0.289  1.041  2.670  0.000    22.106     7.698
 443   8 O     -0.521  1.755  4.766  0.000    24.245     6.602
 444   7 N     -0.279  1.274  4.005  0.000    27.220     7.749
 445   1 H      0.163  0.837  0.000  0.000     1.318     1.798
 446   1 H      0.054  0.946  0.000  0.000     2.269     2.355
 447   1 H      0.079  0.921  0.000  0.000     1.992     2.207
 448   1 H      0.027  0.973  0.000  0.000     2.627     2.534
 449   1 H      0.054  0.946  0.000  0.000     2.270     2.356
 450   1 H      0.092  0.908  0.000  0.000     1.861     2.133
 451   1 H      0.210  0.790  0.000  0.000     1.054     1.608
 452   1 H      0.233  0.767  0.000  0.000     0.954     1.530
 453   7 N     -0.388  1.313  4.075  0.000    30.047     8.141
 454   6 C      0.026  1.062  2.912  0.000    20.155     6.396
 455   6 C      0.195  1.104  2.701  0.000    23.836     7.995
 456   8 O     -0.399  1.757  4.642  0.000    21.660     6.240
 457   6 C     -0.080  1.071  3.009  0.000    22.019     6.681
 458   6 C     -0.079  1.057  3.022  0.000    22.011     6.680
 459   6 C     -0.090  1.059  3.031  0.000    22.217     6.710
 460   6 C     -0.021  1.049  2.972  0.000    21.038     6.547
 461   7 N     -0.179  1.250  3.929  0.000    24.861     7.406
 462   1 H      0.175  0.825  0.000  0.000     1.241     1.745
 463   1 H      0.069  0.931  0.000  0.000     2.102     2.267
 464   1 H      0.067  0.933  0.000  0.000     2.119     2.277
 465   1 H      0.067  0.933  0.000  0.000     2.124     2.279
 466   1 H      0.030  0.970  0.000  0.000     2.590     2.516
 467   1 H      0.071  0.929  0.000  0.000     2.070     2.250
 468   1 H      0.066  0.934  0.000  0.000     2.128     2.281
 469   1 H      0.083  0.917  0.000  0.000     1.948     2.183
 470   1 H      0.096  0.904  0.000  0.000     1.822     2.111
 471   1 H      0.089  0.911  0.000  0.000     1.890     2.150
 472   1 H      0.272  0.728  0.000  0.000     0.802     1.403
 473   1 H      0.302  0.698  0.000  0.000     0.709     1.319
 474   1 H      0.238  0.762  0.000  0.000     0.932     1.512
 475   7 N     -0.403  1.326  4.078  0.000    30.466     8.198
 476   6 C      0.022  1.069  2.909  0.000    20.204     6.399
 477   6 C      0.283  1.033  2.685  0.000    22.214     7.718
 478   8 O     -0.493  1.746  4.746  0.000    23.624     6.517
 479   6 C     -0.072  1.049  3.022  0.000    21.868     6.657
 480   6 C     -0.090  1.055  3.035  0.000    22.205     6.707
 481   6 C      0.285  1.041  2.674  0.000    22.164     7.708
 482   8 O     -0.516  1.756  4.760  0.000    24.133     6.586
 483   7 N     -0.277  1.273  4.003  0.000    27.154     7.739
 484   1 H      0.154  0.846  0.000  0.000     1.372     1.835
 485   1 H      0.048  0.952  0.000  0.000     2.350     2.398
 486   1 H      0.070  0.930  0.000  0.000     2.089     2.260
 487   1 H      0.024  0.976  0.000  0.000     2.676     2.558
 488   1 H      0.062  0.938  0.000  0.000     2.179     2.308
 489   1 H      0.072  0.928  0.000  0.000     2.068     2.249
 490   1 H      0.209  0.791  0.000  0.000     1.060     1.613
 491   1 H      0.235  0.765  0.000  0.000     0.945     1.523
 492   7 N     -0.184  1.250  3.934  0.000    24.993     7.425
 493   6 C      0.023  1.067  2.909  0.000    20.198     6.402
 494   6 C      0.273  1.052  2.675  0.000    22.380     7.747
 495   8 O     -0.489  1.758  4.731  0.000    23.541     6.505
 496   6 C     -0.111  1.034  3.077  0.000    22.681     6.791
 497   1 H      0.224  0.776  0.000  0.000     0.990     1.559
 498   1 H      0.062  0.938  0.000  0.000     2.182     2.310
 499   1 H      0.052  0.948  0.000  0.000     2.295     2.369
 500   1 H      0.068  0.932  0.000  0.000     2.110     2.272
 501   1 H      0.066  0.934  0.000  0.000     2.126     2.280
 502   7 N     -0.175  1.246  3.929  0.000    24.790     7.395
 503   6 C     -0.018  1.053  2.965  0.000    20.967     6.531
[...]
   179  N   3.378    C  177 1.292    H  186 0.927    H  187 0.912    O  178 0.192
   180  H   0.956    N  171 0.916
   181  H   0.993    C  172 0.951
   182  H   0.994    C  175 0.969
   183  H   0.994    C  175 0.969
   184  H   0.996    C  176 0.968
   185  H   0.991    C  176 0.937
   186  H   0.952    N  179 0.927
   187  H   0.949    N  179 0.912
   188  O   1.920    H  190 0.875    H  189 0.845    H   47 0.073
   189  H   0.897    O  188 0.845
   190  H   0.898    O  188 0.875
   191  O   1.860    H  192 0.891    H  193 0.813
   192  H   0.894    O  191 0.891
   193  H   0.895    O  191 0.813    O  156 0.074
   194  O   1.820    H  195 0.921    H  196 0.885
   195  H   0.923    O  194 0.921
   196  H   0.903    O  194 0.885
   197  O   1.802    H  199 0.897    H  198 0.840
   198  H   0.894    O  197 0.840    O  200 0.052
   199  H   0.914    O  197 0.897
   200  O   1.863    H  201 0.909    H  202 0.850    H  198 0.052
   201  H   0.916    O  200 0.909
   202  H   0.885    O  200 0.850
   203  O   1.824    H  204 0.911    H  205 0.831
   204  H   0.913    O  203 0.911
   205  H   0.901    O  203 0.831    O  101 0.065
   206  O   1.831    H  207 0.917    H  208 0.909
   207  H   0.919    O  206 0.917
   208  H   0.910    O  206 0.909
   209  O   1.795    H  211 0.904    H  210 0.874
   210  H   0.897    O  209 0.874
   211  H   0.905    O  209 0.904
   212  O   1.830    H  213 0.891    H  214 0.854
   213  H   0.911    O  212 0.891
   214  H   0.909    O  212 0.854
   215  O   1.823    H  216 0.893    H  217 0.849
   216  H   0.910    O  215 0.893
   217  H   0.905    O  215 0.849
   218  N   2.982    C  219 1.005    H  512 0.955    H  229 0.920
   219  C   3.986    N  218 1.005    C  220 0.988    H  230 0.967    C  222 0.952    O  221 0.054
   220  C   3.897    O  221 1.889    C  219 0.988    H  513 0.953
   221  O   2.057    C  220 1.889    C  219 0.054
   222  C   3.989    C  223 1.005    H  232 0.974    H  231 0.971    C  219 0.952
   223  C   3.987    C  222 1.005    C  224 0.999    H  233 0.975    H  234 0.973
   224  C   3.953    C  223 0.999    N  225 0.983    H  236 0.965    H  235 0.957
   225  N   3.465    C  226 1.319    C  224 0.983    H  237 0.909    N  228 0.103    N  227 0.097
   226  C   3.975    N  225 1.319    N  228 1.314    N  227 1.309
   227  N   3.387    C  226 1.309    H  239 0.927    H  238 0.911    N  228 0.097    N  225 0.097
   228  N   3.385    C  226 1.314    H  241 0.920    H  240 0.911    N  225 0.103    N  227 0.097
   229  H   0.966    N  218 0.920
   230  H   0.997    C  219 0.967
   231  H   0.996    C  222 0.971
   232  H   0.996    C  222 0.974
   233  H   0.995    C  223 0.975
   234  H   0.994    C  223 0.973
   235  H   0.994    C  224 0.957
   236  H   0.994    C  224 0.965
   237  H   0.941    N  225 0.909
   238  H   0.945    N  227 0.911
   239  H   0.948    N  227 0.927
   240  H   0.930    N  228 0.911
   241  H   0.938    N  228 0.920
   242  N   2.991    C  243 1.012    H  514 0.956    H  253 0.950
   243  C   3.984    N  242 1.012    C  244 0.982    C  246 0.960    H  254 0.958    O  245 0.055
   244  C   3.886    O  245 1.879    C  243 0.982    H  515 0.956
   245  O   2.014    C  244 1.879    C  243 0.055
   246  C   3.986    C  247 1.002    H  256 0.973    H  255 0.966    C  243 0.960
   247  C   3.988    C  248 1.005    C  246 1.002    H  257 0.975    H  258 0.970
   248  C   3.946    C  247 1.005    N  249 0.967    H  260 0.962    H  259 0.955
   249  N   3.444    C  250 1.304    C  248 0.967    H  261 0.913    N  252 0.104    N  251 0.098
   250  C   3.977    N  252 1.324    N  251 1.321    N  249 1.304
   251  N   3.394    C  250 1.321    H  262 0.903    H  263 0.885    N  252 0.106    N  249 0.098
   252  N   3.390    C  250 1.324    H  264 0.926    H  265 0.848    N  251 0.106    N  249 0.104
   253  H   0.969    N  242 0.950
   254  H   0.997    C  243 0.958
   255  H   0.994    C  246 0.966
   256  H   0.995    C  246 0.973
   257  H   0.995    C  247 0.975
   258  H   0.994    C  247 0.970
   259  H   0.988    C  248 0.955
   260  H   0.994    C  248 0.962
   261  H   0.950    N  249 0.913
   262  H   0.942    N  251 0.903
   263  H   0.948    N  251 0.885
   264  H   0.948    N  252 0.926
   265  H   0.940    N  252 0.848    O  156 0.072
   266  N   2.997    C  267 1.010    H  516 0.956    H  270 0.952
   267  C   3.982    N  266 1.010    C  268 0.976    H  271 0.962    C  272 0.958    O  269 0.054
   268  C   3.875    O  269 1.858    C  267 0.976    H  517 0.955
   269  O   2.033    C  268 1.858    C  267 0.054
   270  H   0.968    N  266 0.952
   271  H   0.997    C  267 0.962
   272  C   3.987    C  273 1.004    H  280 0.973    H  279 0.970    C  267 0.958
   273  C   3.989    C  274 1.004    C  272 1.004    H  282 0.973    H  281 0.971
   274  C   3.956    C  273 1.004    N  275 0.975    H  284 0.967    H  283 0.966
   275  N   3.443    C  276 1.341    C  274 0.975    H  285 0.819    N  277 0.103    N  278 0.101
   276  C   3.974    N  275 1.341    N  277 1.308    N  278 1.288
   277  N   3.371    C  276 1.308    H  286 0.921    H  287 0.894    N  275 0.103    N  278 0.090
   278  N   3.371    C  276 1.288    H  288 0.911    H  289 0.907    N  275 0.101    N  277 0.090
   279  H   0.994    C  272 0.970
   280  H   0.994    C  272 0.973
   281  H   0.992    C  273 0.971
   282  H   0.998    C  273 0.973
   283  H   0.998    C  274 0.966
   284  H   0.992    C  274 0.967
   285  H   0.938    N  275 0.819    O  298 0.086
   286  H   0.946    N  277 0.921
   287  H   0.943    N  277 0.894
   288  H   0.950    N  278 0.911
   289  H   0.949    N  278 0.907
   290  N   2.990    C  291 1.020    H  518 0.963    H  299 0.916
   291  C   3.987    N  290 1.020    C  292 0.988    H  300 0.957    C  294 0.939    O  293 0.058
   292  C   3.892    O  293 1.861    C  291 0.988    H  519 0.951
   293  O   2.039    C  292 1.861    C  291 0.058
   294  C   3.989    C  295 1.008    H  301 0.972    H  302 0.971    C  291 0.939
   295  C   3.985    C  294 1.008    H  303 0.971    H  304 0.956    C  296 0.917    O  297 0.052
   296  C   3.938    O  297 1.524    O  298 1.455    C  295 0.917
   297  O   1.840    C  296 1.524    O  298 0.202    C  295 0.052
   298  O   1.883    C  296 1.455    O  297 0.202    H  285 0.086
   299  H   0.960    N  290 0.916
   300  H   1.000    C  291 0.957
   301  H   0.996    C  294 0.972
   302  H   0.998    C  294 0.971
   303  H   1.000    C  295 0.971
   304  H   0.998    C  295 0.956
   305  N   2.988    C  306 1.005    H  314 0.960    H  520 0.956
   306  C   3.984    N  305 1.005    C  309 0.977    H  315 0.962    C  307 0.947
   307  C   3.953    O  308 1.566    N  320 1.367    C  306 0.947
   308  O   1.899    C  307 1.566    N  320 0.197
   309  C   3.995    C  310 1.008    C  306 0.977    H  317 0.976    H  316 0.973
   310  C   3.995    C  309 1.008    H  318 0.971    H  319 0.961    C  311 0.946
   311  C   3.934    O  312 1.500    O  313 1.465    C  310 0.946
   312  O   1.785    C  311 1.500    O  313 0.214
   313  O   1.747    C  311 1.465    O  312 0.214
   314  H   0.978    N  305 0.960
   315  H   0.998    C  306 0.962
   316  H   0.999    C  309 0.973
   317  H   1.000    C  309 0.976
   318  H   1.000    C  310 0.971
   319  H   0.999    C  310 0.961
   320  N   3.498    C  307 1.367    C  321 0.953    H  328 0.888    O  308 0.197
   321  C   3.956    C  322 0.990    C  324 0.965    N  320 0.953    H  329 0.948    O  323 0.052
   322  C   3.901    O  323 1.876    C  321 0.990    H  521 0.954
   323  O   2.032    C  322 1.876    C  321 0.052
   324  C   3.974    C  325 0.977    H  331 0.971    H  330 0.969    C  321 0.965
   325  C   3.990    C  326 1.012    C  327 1.011    C  324 0.977    H  332 0.968
   326  C   3.994    C  325 1.012    H  335 0.982    H  334 0.981    H  333 0.977
   327  C   3.992    C  325 1.011    H  338 0.981    H  337 0.980    H  336 0.978
   328  H   0.944    N  320 0.888
   329  H   0.994    C  321 0.948
   330  H   0.994    C  324 0.969
   331  H   0.995    C  324 0.971
   332  H   0.998    C  325 0.968
   333  H   0.997    C  326 0.977
   334  H   0.998    C  326 0.981
   335  H   0.999    C  326 0.982
   336  H   0.997    C  327 0.978
   337  H   0.996    C  327 0.980
   338  H   0.997    C  327 0.981
   339  N   2.996    C  340 1.019    H  522 0.959    H  344 0.935
   340  C   3.987    N  339 1.019    C  343 0.996    H  345 0.957    C  341 0.931
   341  C   3.941    O  342 1.603    N  349 1.318    C  340 0.931
   342  O   1.963    C  341 1.603    N  349 0.187
   343  C   3.992    C  340 0.996    H  347 0.982    H  348 0.980    H  346 0.978
   344  H   0.971    N  339 0.935
   345  H   0.998    C  340 0.957
   346  H   0.996    C  343 0.978
   347  H   0.997    C  343 0.982
   348  H   0.997    C  343 0.980
   349  N   3.479    C  341 1.318    C  350 0.948    H  358 0.912    O  342 0.187
   350  C   3.960    C  353 0.980    C  351 0.975    H  359 0.950    N  349 0.948    O  352 0.052
   351  C   3.898    O  352 1.907    C  350 0.975    H  523 0.950
   352  O   2.045    C  351 1.907    C  350 0.052
   353  C   3.987    C  354 0.999    C  350 0.980    H  361 0.969    H  360 0.969
   354  C   3.990    C  353 0.999    C  355 0.976    H  362 0.967    H  363 0.936    O  356 0.050
   355  C   3.945    O  356 1.641    N  357 1.296    C  354 0.976
   356  O   1.967    C  355 1.641    N  357 0.192    C  354 0.050
   357  N   3.377    C  355 1.296    H  364 0.928    H  365 0.916    O  356 0.192
   358  H   0.948    N  349 0.912
   359  H   0.992    C  350 0.950
   360  H   0.994    C  353 0.969
   361  H   0.994    C  353 0.969
   362  H   0.996    C  354 0.967
   363  H   0.990    C  354 0.936
   364  H   0.949    N  357 0.928
   365  H   0.949    N  357 0.916
   366  N   2.989    C  367 1.014    H  524 0.956    H  371 0.950
   367  C   3.983    N  366 1.014    C  370 0.992    H  372 0.961    C  368 0.937
   368  C   3.931    O  369 1.638    N  376 1.274    C  367 0.937
   369  O   1.978    C  368 1.638    N  376 0.194
   370  C   3.989    C  367 0.992    H  375 0.984    H  373 0.984    H  374 0.974
   371  H   0.967    N  366 0.950
   372  H   0.997    C  367 0.961
   373  H   0.998    C  370 0.984
   374  H   0.993    C  370 0.974
   375  H   0.996    C  370 0.984
   376  N   3.456    C  368 1.274    C  377 0.986    H  384 0.915    O  369 0.194
   377  C   3.975    C  378 0.994    N  376 0.986    C  380 0.969    H  385 0.931    O  379 0.051
   378  C   3.902    O  379 1.875    C  377 0.994    H  525 0.950
   379  O   2.020    C  378 1.875    C  377 0.051
   380  C   3.983    C  381 0.979    H  387 0.970    C  377 0.969    H  386 0.967
   381  C   3.992    C  382 1.012    C  383 1.010    C  380 0.979    H  388 0.965
   382  C   3.992    C  381 1.012    H  391 0.985    H  390 0.982    H  389 0.981
   383  C   3.994    C  381 1.010    H  393 0.986    H  392 0.981    H  394 0.980
   384  H   0.948    N  376 0.915
   385  H   0.994    C  377 0.931
   386  H   0.995    C  380 0.967
   387  H   0.996    C  380 0.970
   388  H   0.996    C  381 0.965
   389  H   0.996    C  382 0.981
   390  H   0.996    C  382 0.982
   391  H   0.999    C  382 0.985
   392  H   0.999    C  383 0.981
   393  H   0.999    C  383 0.986
   394  H   0.999    C  383 0.980
   395  N   2.986    C  396 1.001    H  526 0.960    H  403 0.955
   396  C   3.980    N  395 1.001    C  399 0.983    H  404 0.963    C  397 0.950
   397  C   3.936    O  398 1.581    N  414 1.325    C  396 0.950
   398  O   1.908    C  397 1.581    N  414 0.191
   399  C   3.987    C  396 0.983    C  400 0.980    H  405 0.973    H  406 0.972
   400  C   3.992    C  401 1.012    C  402 1.011    C  399 0.980    H  407 0.968
   401  C   3.994    C  400 1.012    H  410 0.985    H  409 0.984    H  408 0.978
   402  C   3.994    C  400 1.011    H  412 0.983    H  413 0.981    H  411 0.979
   403  H   0.972    N  395 0.955
   404  H   0.998    C  396 0.963
   405  H   0.995    C  399 0.973
   406  H   0.996    C  399 0.972
   407  H   1.000    C  400 0.968
   408  H   0.999    C  401 0.978
   409  H   0.999    C  401 0.984
   410  H   0.997    C  401 0.985
   411  H   0.999    C  402 0.979
   412  H   0.996    C  402 0.983
   413  H   0.997    C  402 0.981
   414  N   3.489    C  397 1.325    C  415 0.985    H  423 0.894    O  398 0.191
   415  C   3.965    N  414 0.985    C  416 0.972    C  418 0.964    H  424 0.936    O  417 0.055
   416  C   3.891    O  417 1.882    C  415 0.972    H  527 0.955
   417  O   2.038    C  416 1.882    C  415 0.055
   418  C   3.983    C  419 1.005    H  426 0.970    H  425 0.966    C  415 0.964
   419  C   3.991    C  418 1.005    C  420 1.002    H  427 0.977    H  428 0.973
   420  C   3.983    C  421 1.012    C  419 1.002    H  430 0.966    H  429 0.965
   421  C   3.909    C  420 1.012    H  431 0.965    H  432 0.964    N  422 0.947
   422  N   3.673    C  421 0.947    H  435 0.905    H  434 0.898    H  433 0.881
   423  H   0.947    N  414 0.894
   424  H   0.990    C  415 0.936
   425  H   0.993    C  418 0.966
   426  H   0.994    C  418 0.970
   427  H   0.997    C  419 0.977
   428  H   0.996    C  419 0.973
   429  H   0.995    C  420 0.965
   430  H   0.992    C  420 0.966
   431  H   0.991    C  421 0.965
   432  H   0.986    C  421 0.964
   433  H   0.918    N  422 0.881
   434  H   0.915    N  422 0.898
   435  H   0.930    N  422 0.905
   436  N   2.986    C  437 0.985    H  445 0.952    H  528 0.951
   437  C   3.983    N  436 0.985    C  438 0.984    C  440 0.976    H  446 0.963    O  439 0.053
   438  C   3.891    O  439 1.897    C  437 0.984    H  529 0.953
   439  O   2.030    C  438 1.897    C  437 0.053
   440  C   3.991    C  441 0.999    C  437 0.976    H  448 0.973    H  447 0.954
   441  C   3.993    C  440 0.999    C  442 0.979    H  449 0.968    H  450 0.936
   442  C   3.941    O  443 1.614    N  444 1.312    C  441 0.979
   443  O   1.920    C  442 1.614    N  444 0.189
   444  N   3.393    C  442 1.312    H  451 0.929    H  452 0.899    O  443 0.189
   445  H   0.974    N  436 0.952
   446  H   0.997    C  437 0.963
   447  H   0.994    C  440 0.954
   448  H   0.999    C  440 0.973
   449  H   0.997    C  441 0.968
   450  H   0.991    C  441 0.936
   451  H   0.956    N  444 0.929
   452  H   0.946    N  444 0.899
   453  N   3.003    C  454 1.014    H  530 0.954    H  462 0.950
   454  C   3.981    N  453 1.014    C  455 0.982    C  457 0.956    H  463 0.946    O  456 0.055
   455  C   3.869    O  456 1.846    C  454 0.982    H  531 0.952
   456  O   2.039    C  455 1.846    C  454 0.055
   457  C   3.988    C  458 1.004    H  465 0.973    H  464 0.968    C  454 0.956
   458  C   3.992    C  457 1.004    C  459 1.002    H  466 0.978    H  467 0.967
   459  C   3.988    C  460 1.013    C  458 1.002    H  468 0.971    H  469 0.968
   460  C   3.927    C  459 1.013    H  470 0.969    H  471 0.968    N  461 0.959
   461  N   3.630    C  460 0.959    H  474 0.918    H  472 0.888    H  473 0.758    O  506 0.057
   462  H   0.969    N  453 0.950
   463  H   0.995    C  454 0.946
   464  H   0.995    C  457 0.968
   465  H   0.995    C  457 0.973
   466  H   0.999    C  458 0.978
   467  H   0.995    C  458 0.967
   468  H   0.996    C  459 0.971
   469  H   0.993    C  459 0.968
   470  H   0.990    C  460 0.969
   471  H   0.992    C  460 0.968
   472  H   0.926    N  461 0.888
   473  H   0.909    N  461 0.758    O  506 0.128
   474  H   0.943    N  461 0.918
   475  N   2.979    C  476 0.991    H  484 0.955    H  532 0.953
   476  C   3.982    N  475 0.991    C  479 0.987    H  485 0.965    C  477 0.940    O  478 0.052
   477  C   3.947    O  478 1.640    N  492 1.301    C  476 0.940
   478  O   1.956    C  477 1.640    N  492 0.201    C  476 0.052
   479  C   3.992    C  480 1.000    C  476 0.987    H  487 0.973    H  486 0.953
   480  C   3.994    C  479 1.000    C  481 0.975    H  488 0.968    H  489 0.949
   481  C   3.942    O  482 1.618    N  483 1.315    C  480 0.975
   482  O   1.926    C  481 1.618    N  483 0.193
   483  N   3.397    C  481 1.315    H  490 0.930    H  491 0.898    O  482 0.193
   484  H   0.976    N  475 0.955
   485  H   0.997    C  476 0.965
   486  H   0.995    C  479 0.953
   487  H   0.999    C  479 0.973
   488  H   0.996    C  480 0.968
   489  H   0.995    C  480 0.949
   490  H   0.956    N  483 0.930
   491  H   0.945    N  483 0.898
   492  N   3.467    C  477 1.301    C  493 0.976    H  497 0.894    O  478 0.201
   493  C   3.969    C  496 1.010    N  492 0.976    H  498 0.952    C  494 0.920    O  495 0.051
   494  C   3.939    O  495 1.659    N  502 1.286    C  493 0.920
   495  O   1.968    C  494 1.659    N  502 0.198    C  493 0.051
   496  C   3.987    C  493 1.010    H  499 0.983    H  501 0.982    H  500 0.982
   497  H   0.950    N  492 0.894
   498  H   0.996    C  493 0.952
   499  H   0.997    C  496 0.983
   500  H   0.995    C  496 0.982
   501  H   0.996    C  496 0.982
   502  N   3.454    C  494 1.286    C  503 0.984    H  507 0.925    O  495 0.198
   503  C   3.950    N  502 0.984    H  508 0.963    H  509 0.942    C  504 0.928
   504  C   3.945    O  505 1.524    O  506 1.455    C  503 0.928
   505  O   1.835    C  504 1.524    O  506 0.219
   506  O   1.939    C  504 1.455    O  505 0.219    H  473 0.128    N  461 0.057
   507  H   0.960    N  502 0.925
   508  H   0.998    C  503 0.963
   509  H   0.997    C  503 0.942
   510  H   0.972    N    1 0.962
   511  H   0.993    C  173 0.951
   512  H   0.969    N  218 0.955
   513  H   0.994    C  220 0.953
   514  H   0.966    N  242 0.956
   515  H   0.994    C  244 0.956
   516  H   0.966    N  266 0.956
   517  H   0.992    C  268 0.955
   518  H   0.973    N  290 0.963
   519  H   0.992    C  292 0.951
   520  H   0.965    N  305 0.956
   521  H   0.992    C  322 0.954
   522  H   0.971    N  339 0.959
   523  H   0.993    C  351 0.950
   524  H   0.965    N  366 0.956
   525  H   0.993    C  378 0.950
   526  H   0.968    N  395 0.960
   527  H   0.994    C  416 0.955
   528  H   0.966    N  436 0.951
   529  H   0.995    C  438 0.953
   530  H   0.967    N  453 0.954
   531  H   0.991    C  455 0.952
   532  H   0.966    N  475 0.953
 
molecular dipole:
                 x           y           z       tot (Debye)
 q only:      -14.407       2.079     -33.412
   full:      -11.278       4.434     -30.139      82.569
molecular quadrupole (traceless):
                xx          xy          yy          xz          yz          zz
 q only:      190.117    -510.090     347.818    -662.736   -1469.147    -537.935
  q+dip:      267.813    -406.137     347.549    -562.903   -1335.118    -615.362
   full:      269.616    -406.616     346.731    -563.159   -1337.028    -616.347
speedup 11.39
cpu  time for grad   42.10 s
wall time for grad    3.70 s

SCC energy    :    -826.7043152
rep           :       9.4377817
ES            :       3.2488980
AES           :      -0.2190187
AXC           :       0.2578211
disp          :      -0.6601730
XB            :       0.0000000
fix           :       0.0000000
Gborn         :       0.0000000
Gsasa         :       0.0000000
Ghb           :       0.0000000
Gshift        :       0.0000000
Gsolv         :      -0.8203416     -514.77
Etot ala COSMO:    -826.7043152
grad norm     :       0.8277392
total E       :    -817.1925205
atomizationE  :     142.7527781    89578.72
(atE without considering molecular charge,
 total energy contains solvation terms)
H-L gap (eV)  :          1.5375

------------------------------------------------------------------------
 * finished run on 2019/02/16 at 08:09:48.304     
------------------------------------------------------------------------
 total:
 * wall-time:     0 d,  0 h,  0 min,  4.291 sec
 *  cpu-time:     0 d,  0 h,  0 min, 48.616 sec
 * ratio c/w:    11.330 speedup
 SCF:
 * wall-time:     0 d,  0 h,  0 min,  4.015 sec
 *  cpu-time:     0 d,  0 h,  0 min, 45.708 sec
 * ratio c/w:    11.385 speedup

