      -----------------------------------------------------------      
     |                   =====================                   |     
     |                           x T B                           |     
     |                   =====================                   |     
     |                         S. Grimme                         |     
     |          Mulliken Center for Theoretical Chemistry        |     
     |                    University of Bonn                     |     
     |                 Version 6.0.1 (SAW181210)                 |     
      -----------------------------------------------------------      

   This program is distributed in the hope that it will be useful,
   but WITHOUT ANY WARRANTY; without even the implied warranty of
   MERCHANTABILITY or FITNESS FOR A PARTICULAR PURPOSE.
   
   FOR NON-COMMERCIAL, ACADEMIA USE ONLY.
   
   Cite this work as:
   S. Grimme, C. Bannwarth, P. Shushkov, J. Comput. Theory Chem., 2017,
   13, 1989-2009.
   C. Bannwarth, S. Ehlert and S. Grimme., ChemRxiv, 2018, preprint.
   http://doi.org/10.26434/chemrxiv.7246238.v1
   
   for sTDA-xTB:
   S. Grimme and C. Bannwarth, J. Chem. Phys., 2016, 145, 054103.
   
   in the mass-spec context:
   V. Asgeirsson, C. Bauer and S. Grimme, Chem. Sci., 2017, 8, 4879.
   
   if GBSA is used:
   P. Shushkov, F. März and S. Grimme, unpublished.
   
   for ANC optimizer:
   S. Grimme, unpublished.
   Rational Function algorithm used in ANCopt:
   F. Eckert, P. Pulay, H.-J. Werner, J. Comput. Chem., 1997, 18, 1473.
   
   with help from (in alphabetical order)
   C. Bannwarth, F. Bohle, G. Brandenburg, E. Caldeweyher, M. Checinski,
   S. Dohm, S. Ehlert, S. Ehrlich, F. März, H. Neugebauer, J. Pisarek,
   P. Pracht, P. Shushkov, and S. Spicher.
   
 * started run on 2019/02/16 at 08:10:09.893     
========================================================================
 # omp threads = 12
========================================================================
number of atoms            : 278
number of electrons        : 738
charge                     : 1
spin                       : .0
first test random number   : .3131

########################################################################
# WARNING! Please study the warnings concerning your input carefully
#  - Process number higher than OMP_NUM_THREADS, I hope you know what you are doing.
########################################################################

           ------------------------------------------------- 
          |                 G F N 2 - x T B                 |
          | Geometry, Frequencies, Noncovalent interactions |
          |            JCTC 2018 parametrisation            |
           ------------------------------------------------- 
 
      method parameters     
 k(s)        :  1.8500
 k(p)        :  2.2300
 k(d)        :  2.2300
 k(f)        :  2.0000
 kEN (H0ij)  : -2.0000
 D4 a1       :  0.5200
 D4 a2       :  5.0000
 D4 s6       :  1.0000
 D4 s8       :  2.7000
 D4 s9       :  5.0000
 alphaj      :  2.0000

 Solvent             : h2o
 Using internal parameter file: .param_gbsa2_h2o
 Gsolv ref. state (COSMO-RS): gsolv [1 M gas/solution]
 temperature (mdtemp)       :    298.150000000000     
 dielectric constant        :    80.2000000000000     
 rho                        :    1.00000000000000     
 mass                       :    18.0000000000000     
 surface tension            :    15.5689454083859     
 probe radius               :   0.975313790000000     
 vdW radii scaling          :    1.00000000000000     
 Gshift (Eh)                :   1.857443126794793E-003
 c1                         :    1.55243817000000     
 soset                      :   0.130326360000000     
 HB correction              :  T

            Z     q(EN)     CN     RAES       Cart. coordinates
     1  N   5.0   -0.21    3.24    1.97     9.94744    40.43287     9.28255
     2  C   4.0    0.03    4.34    4.26    10.72294    39.90758     6.79643
     3  C   4.0    0.14    3.43    3.09    11.86036    37.24032     6.53016
     4  O   6.0   -0.32    1.27    1.80    11.61882    35.98009     4.59901
     5  C   4.0   -0.04    4.27    4.15    12.64690    41.83908     5.70920
     6  C   4.0   -0.02    3.50    3.11    11.32175    44.26299     4.85360
     7  C   4.0   -0.04    3.52    3.12     9.25152    44.23117     3.20090
     8  C   4.0   -0.03    3.50    3.12    11.89916    46.60076     5.75340
     9  C   4.0   -0.03    3.41    3.08     7.92410    46.35527     2.56559
    10  C   4.0   -0.03    3.40    3.08    10.71884    48.83302     4.92218
    11  C   4.0   -0.03    3.38    3.07     8.57867    48.66844     3.47303
    12  H   1.0    0.09    1.02    1.43    10.80432    41.82862    10.28825
    13  H   1.0    0.04    1.06    1.44     9.03876    39.87851     5.57594
    14  H   1.0    0.04    1.03    1.43    14.04872    42.24732     7.15692
    15  H   1.0    0.04    1.03    1.43    13.55701    40.96252     4.08467
    16  H   1.0    0.05    1.03    1.43     8.68266    42.43851     2.39219
    17  H   1.0    0.05    1.03    1.43    13.45735    46.79199     7.06288
    18  H   1.0    0.05    1.03    1.43     6.28793    46.15269     1.35715
    19  H   1.0    0.06    1.03    1.43    11.31425    50.60069     5.72506
    20  H   1.0    0.06    1.03    1.43     7.51675    50.32574     2.94549
    21  N   5.0   -0.15    3.42    2.03    13.27482    36.54424     8.45668
    22  C   4.0    0.03    4.27    4.13    14.49205    34.01076     8.40819
    23  C   4.0    0.09    3.24    3.04    12.40793    31.95429     8.34143
    24  O   6.0   -0.31    1.16    1.80    12.59383    30.09712     6.89695
    25  H   1.0    0.08    1.06    1.44    13.56950    37.63423    10.00156
    26  H   1.0    0.05    1.05    1.44    15.55004    33.83457     6.64338
    27  C   4.0   -0.05    4.18    3.96    16.29011    33.40799    10.65043
    28  C   4.0   -0.04    4.14    3.88    17.28561    30.66706    10.81305
    29  C   4.0   -0.00    4.14    3.88    19.21888    29.86138     8.77784
    30  N   5.0   -0.13    3.39    2.02    19.77082    27.13035     8.92905
    31  C   4.0    0.10    3.34    3.06    21.44360    25.80285     7.57387
    32  N   5.0   -0.17    3.25    1.97    23.27307    26.88384     6.23893
    33  N   5.0   -0.17    3.24    1.97    21.54359    23.28542     7.88781
    34  H   1.0    0.04    1.02    1.43    17.87706    34.72045    10.56823
    35  H   1.0    0.05    1.03    1.43    15.23544    33.77825    12.38726
    36  H   1.0    0.05    1.03    1.43    18.15641    30.50230    12.67074
    37  H   1.0    0.06    1.03    1.43    15.68271    29.36702    10.76919
    38  H   1.0    0.06    1.04    1.43    18.45287    30.28470     6.91291
    39  H   1.0    0.05    1.02    1.43    20.98490    30.89585     9.04494
    40  H   1.0    0.12    1.17    1.46    18.36625    26.03535     9.71439
    41  H   1.0    0.09    1.04    1.43    22.98042    28.61069     5.47572
    42  H   1.0    0.09    1.03    1.43    24.47428    25.74842     5.24384
    43  H   1.0    0.11    1.04    1.44    20.02784    22.45041     8.69953
    44  H   1.0    0.10    1.03    1.43    22.70419    22.21430     6.80608
    45  N   5.0   -0.20    3.26    1.97     6.42453    32.52178     6.10435
    46  C   4.0    0.03    4.32    4.23     5.27002    32.59561     3.68957
    47  C   4.0    0.15    3.44    3.09     6.95975    31.28407     1.73581
    48  O   6.0   -0.32    1.26    1.80     6.06152    29.87039     0.11482
    49  C   4.0   -0.05    4.35    4.30     4.86021    35.37007     2.85807
    50  C   4.0   -0.03    4.20    4.00     2.72108    36.63658     4.38049
    51  C   4.0   -0.07    4.18    3.96     2.56288    39.35721     3.58762
    52  C   4.0   -0.07    4.15    3.91     0.11585    35.60461     3.80455
    53  H   1.0    0.09    1.03    1.43     6.82542    34.15568     7.01845
    54  H   1.0    0.04    1.05    1.44     3.47897    31.55286     3.71230
    55  H   1.0    0.05    1.03    1.43     6.63021    36.38082     3.14345
    56  H   1.0    0.04    1.03    1.43     4.37585    35.37549     0.85554
    57  H   1.0    0.04    1.06    1.44     3.09418    36.46927     6.39266
    58  H   1.0    0.05    1.00    1.43     1.11346    40.34007     4.66551
    59  H   1.0    0.04    1.00    1.43     4.34249    40.34597     3.91537
    60  H   1.0    0.04    1.00    1.43     2.10820    39.50808     1.58875
    61  H   1.0    0.05    1.01    1.43    -1.26720    36.62870     4.92743
    62  H   1.0    0.04    1.00    1.43    -0.35588    35.82779     1.82057
    63  H   1.0    0.04    1.00    1.43    -0.08076    33.61113     4.28097
    64  N   5.0   -0.14    3.50    2.08     9.40011    31.84216     1.78350
    65  C   4.0    0.03    4.44    4.45    11.10708    30.75534    -0.11416
    66  C   4.0    0.16    3.49    3.11    11.30735    27.93082     0.18699
    67  O   6.0   -0.30    1.27    1.80    11.24680    26.35054    -1.59760
    68  C   4.0   -0.03    4.39    4.37    13.72494    31.85766     0.15139
    69  C   4.0    0.16    3.25    3.04    15.60892    31.10892    -1.84831
    70  O   6.0   -0.29    1.28    1.80    17.61420    30.06141    -1.29887
    71  N   5.0   -0.19    3.27    1.97    14.83772    31.57269    -4.09288
    72  H   1.0    0.11    1.09    1.44    10.11366    33.08325     3.06118
    73  H   1.0    0.05    1.06    1.44    10.26695    31.10058    -1.97983
    74  H   1.0    0.05    1.03    1.43    13.54953    33.92176     0.14511
    75  H   1.0    0.06    1.03    1.43    14.48129    31.32009     1.99872
    76  H   1.0    0.11    1.11    1.45    15.72888    30.84485    -5.63871
    77  H   1.0    0.07    1.05    1.44    13.18127    32.48083    -4.34734
    78  N   5.0   -0.14    3.46    2.06    11.40474    27.05645     2.56604
    79  C   4.0    0.04    4.41    4.40    11.48052    24.32917     2.98739
    80  C   4.0    0.16    3.47    3.10     9.09641    22.99005     2.10260
    81  O   6.0   -0.27    1.23    1.80     9.09548    20.85062     1.20061
    82  C   4.0   -0.03    4.28    4.16    11.75557    23.43208     5.76358
    83  C   4.0   -0.02    4.17    3.93    14.30572    24.06924     6.91371
    84  C   4.0    0.25    3.10    3.02    14.46850    23.44579     9.78470
    85  O   6.0   -0.26    1.17    1.80    12.46917    22.77517    10.89169
    86  O   6.0   -0.30    1.31    1.80    16.61443    23.71195    10.72771
    87  H   1.0    0.11    1.09    1.44    11.60053    28.19905     4.10099
    88  H   1.0    0.07    1.05    1.44    13.04028    23.53788     1.86403
    89  H   1.0    0.07    1.03    1.43    10.26128    24.31554     6.88161
    90  H   1.0    0.07    1.04    1.43    11.49741    21.38837     5.74943
    91  H   1.0    0.06    1.02    1.43    15.81362    23.05546     5.94059
    92  H   1.0    0.06    1.03    1.43    14.68014    26.09179     6.73295
    93  N   5.0   -0.13    3.49    2.07     6.90717    24.20814     2.52274
    94  C   4.0    0.04    4.29    4.18     4.45489    23.19411     1.76678
    95  C   4.0    0.16    3.38    3.07     4.37174    22.89405    -1.14120
    96  O   6.0   -0.26    1.21    1.80     3.49901    20.95859    -2.10492
    97  C   4.0   -0.06    4.07    3.75     2.37794    24.82757     2.95915
    98  H   1.0    0.09    1.07    1.44     6.88042    25.87737     3.47082
    99  H   1.0    0.07    1.05    1.44     4.31757    21.24471     2.46943
   100  H   1.0    0.06    1.00    1.43     0.56752    23.88542     2.76172
   101  H   1.0    0.05    1.00    1.43     2.82122    25.08559     4.94499
   102  H   1.0    0.05    1.00    1.43     2.32790    26.66594     2.04753
   103  N   5.0   -0.14    3.48    2.06     5.34865    24.84549    -2.55174
   104  C   4.0    0.04    4.45    4.47     5.43081    24.72571    -5.26928
   105  C   4.0    0.16    3.44    3.09     7.02728    22.63548    -6.21061
   106  O   6.0   -0.26    1.22    1.80     6.39774    21.28022    -7.99290
   107  C   4.0   -0.04    4.43    4.43     6.10903    27.20988    -6.39936
   108  C   4.0   -0.02    4.18    3.95     4.13299    29.33603    -5.88205
   109  C   4.0   -0.07    4.15    3.91     5.53569    31.66303    -6.74285
   110  C   4.0   -0.07    4.09    3.78     1.73611    28.84903    -7.44557
   111  H   1.0    0.11    1.08    1.44     5.97914    26.40334    -1.63509
   112  H   1.0    0.06    1.07    1.44     3.52252    24.20650    -5.93894
   113  H   1.0    0.05    1.03    1.43     7.95128    27.76496    -5.64792
   114  H   1.0    0.05    1.04    1.43     6.27407    26.94493    -8.43589
   115  H   1.0    0.06    1.05    1.44     3.69121    29.42497    -3.87491
   116  H   1.0    0.04    1.00    1.43     4.37786    33.35132    -6.55070
   117  H   1.0    0.04    1.00    1.43     7.24236    31.91757    -5.63577
   118  H   1.0    0.04    1.01    1.43     6.04882    31.46784    -8.72276
   119  H   1.0    0.05    1.00    1.43     0.47377    30.46857    -7.37142
   120  H   1.0    0.05    1.00    1.43     2.22062    28.51764    -9.41599
   121  H   1.0    0.05    1.00    1.43     0.72370    27.19908    -6.77169
   122  N   5.0   -0.13    3.43    2.03     9.30789    22.29554    -5.03579
   123  C   4.0    0.04    4.29    4.18    11.04353    20.19202    -5.68766
   124  C   4.0    0.11    3.20    3.04     9.93186    17.61625    -5.12945
   125  O   6.0   -0.24    1.12    1.80    10.16360    15.92746    -6.73696
   126  C   4.0   -0.03    4.28    4.16    13.66753    20.56255    -4.53071
   127  C   4.0   -0.03    4.20    4.01    14.96354    22.91875    -5.55301
   128  C   4.0    0.25    3.14    3.03    17.62721    23.14591    -4.55966
   129  O   6.0   -0.27    1.20    1.80    18.24736    21.82332    -2.70381
   130  O   6.0   -0.31    1.30    1.80    19.08726    24.74628    -5.57967
   131  H   1.0    0.11    1.08    1.44     9.80489    23.39477    -3.55431
   132  H   1.0    0.07    1.06    1.44    11.24488    20.23638    -7.75942
   133  H   1.0    0.07    1.03    1.43    13.49827    20.70804    -2.47715
   134  H   1.0    0.07    1.03    1.43    14.80808    18.89035    -4.91924
   135  H   1.0    0.05    1.02    1.43    14.97114    22.90759    -7.61794
   136  H   1.0    0.06    1.03    1.43    13.93991    24.59329    -4.90585
   137  O   6.0   -0.33    2.07    1.83    17.15538    29.00883    -7.80766
   138  H   1.0    0.15    1.00    1.43    17.28585    27.20407    -7.35589
   139  H   1.0    0.13    0.98    1.43    18.60674    29.58834    -6.85420
   140  O   6.0   -0.31    1.99    1.83    19.23461    28.79774     3.37095
   141  H   1.0    0.17    1.03    1.43    18.86932    29.36796     1.66175
   142  H   1.0    0.14    0.98    1.43    19.40137    27.00371     3.20216
   143  O   6.0   -0.26    1.93    1.82    23.24165    26.91338    -3.81844
   144  H   1.0    0.15    0.97    1.43    23.24270    27.23102    -2.03765
   145  H   1.0    0.18    1.04    1.43    21.63367    26.09595    -4.20934
   146  N   5.0   -0.19    3.20    1.96    26.87106    41.18446     3.59523
   147  C   4.0    0.03    4.34    4.28    25.44699    38.95135     2.79129
   148  C   4.0    0.15    3.44    3.09    25.99985    38.21770     0.14642
   149  O   6.0   -0.29    1.27    1.80    25.87528    39.71921    -1.56432
   150  C   4.0   -0.04    4.41    4.39    22.58313    39.52081     2.94021
   151  C   4.0   -0.02    4.20    4.01    20.95843    37.24086     2.46642
   152  C   4.0   -0.07    4.17    3.93    21.49530    35.25235     4.43398
   153  C   4.0   -0.07    4.11    3.83    18.13410    37.98242     2.79307
   154  H   1.0    0.10    1.02    1.43    26.61793    42.78063     2.56852
   155  H   1.0    0.04    1.06    1.44    25.95978    37.45044     4.11160
   156  H   1.0    0.04    1.03    1.43    22.18174    40.27552     4.81692
   157  H   1.0    0.05    1.03    1.43    22.18174    41.00386     1.55777
   158  H   1.0    0.05    1.05    1.44    21.25846    36.49346     0.56485
   159  H   1.0    0.05    1.00    1.43    20.23183    33.64864     4.17517
   160  H   1.0    0.05    1.00    1.43    23.40493    34.50721     4.31589
   161  H   1.0    0.04    1.00    1.43    21.18962    36.02405     6.31334
   162  H   1.0    0.05    1.00    1.43    16.92400    36.35291     2.51006
   163  H   1.0    0.04    1.00    1.43    17.84179    38.71448     4.68797
   164  H   1.0    0.04    1.00    1.43    17.60525    39.43465     1.43683
   165  N   5.0   -0.13    3.46    2.05    26.77711    35.84992    -0.37903
   166  C   4.0    0.03    4.43    4.44    27.32027    34.79518    -2.86750
   167  C   4.0    0.15    3.40    3.08    24.84794    33.76719    -4.03810
   168  O   6.0   -0.28    1.23    1.80    23.62879    32.22020    -2.83565
   169  C   4.0   -0.03    4.31    4.21    29.37148    32.81117    -2.64255
   170  C   4.0   -0.03    4.28    4.17    30.12649    32.08471    -5.28115
   171  C   4.0    0.17    3.24    3.04    32.49328    30.41934    -5.14356
   172  O   6.0   -0.26    1.23    1.80    32.48441    28.44145    -4.02600
   173  N   5.0   -0.17    3.20    1.96    34.47951    31.22832    -6.37107
   174  H   1.0    0.08    1.06    1.44    26.88115    34.58066     1.05914
   175  H   1.0    0.06    1.06    1.44    27.98562    36.37007    -4.04166
   176  H   1.0    0.06    1.03    1.43    30.96060    33.61249    -1.60355
   177  H   1.0    0.07    1.03    1.43    28.66171    31.16529    -1.62356
   178  H   1.0    0.07    1.03    1.43    28.63346    30.96342    -6.15464
   179  H   1.0    0.05    1.03    1.43    30.49634    33.74195    -6.44463
   180  H   1.0    0.09    1.03    1.43    34.43616    32.77716    -7.49902
   181  H   1.0    0.11    1.03    1.43    36.05136    30.12969    -6.49528
   182  N   5.0   -0.13    3.49    2.07    24.34794    34.52147    -6.35925
   183  C   4.0    0.03    4.50    4.54    21.92926    34.15481    -7.62342
   184  C   4.0    0.15    3.45    3.10    22.60554    32.93128   -10.16427
   185  O   6.0   -0.28    1.24    1.80    24.38111    33.81860   -11.41142
   186  C   4.0   -0.02    4.31    4.23    20.53336    36.62192    -8.03948
   187  C   4.0   -0.04    4.19    3.98    19.63581    37.66660    -5.47811
   188  C   4.0   -0.07    4.13    3.86    18.13863    36.17352    -9.67321
   189  C   4.0   -0.07    3.99    3.60    19.08404    40.53795    -5.47947
   190  H   1.0    0.09    1.07    1.44    25.48587    35.83886    -7.18060
   191  H   1.0    0.06    1.06    1.44    20.82625    32.87693    -6.42984
   192  H   1.0    0.06    1.05    1.44    21.79699    37.97006    -8.95579
   193  H   1.0    0.04    1.03    1.43    17.94997    36.64299    -4.88042
   194  H   1.0    0.06    1.03    1.43    21.09493    37.33263    -4.05427
   195  H   1.0    0.04    1.00    1.43    16.98960    37.86661    -9.72017
   196  H   1.0    0.06    1.00    1.43    18.63233    35.68626   -11.60779
   197  H   1.0    0.04    1.00    1.43    17.03114    34.64793    -8.86541
   198  H   1.0    0.04    1.00    1.43    18.33822    41.10920    -3.65853
   199  H   1.0    0.05    1.00    1.43    20.82358    41.56216    -5.84348
   200  H   1.0    0.04    1.00    1.43    17.70789    41.02461    -6.92230
   201  N   5.0   -0.14    3.46    2.05    21.22336    30.97847   -10.90868
   202  C   4.0    0.04    4.32    4.24    21.59071    29.75327   -13.34579
   203  C   4.0    0.08    3.22    3.04    19.71486    30.71838   -15.28059
   204  O   6.0   -0.29    1.14    1.80    17.46029    30.56766   -14.83917
   205  C   4.0   -0.04    4.26    4.12    21.14732    26.89644   -12.91131
   206  C   4.0   -0.05    4.15    3.90    22.61761    25.30054   -14.85910
   207  C   4.0   -0.00    4.17    3.95    22.17915    22.40313   -14.53835
   208  N   5.0   -0.13    3.40    2.02    23.52397    21.07951   -16.55085
   209  C   4.0    0.10    3.33    3.06    23.26151    18.62569   -17.09031
   210  N   5.0   -0.17    3.24    1.97    21.48591    17.27426   -15.89883
   211  N   5.0   -0.17    3.23    1.96    24.56588    17.70104   -19.04365
   212  H   1.0    0.09    1.10    1.44    19.70520    30.35684    -9.93155
   213  H   1.0    0.06    1.06    1.44    23.53812    30.11966   -13.92906
   214  H   1.0    0.06    1.03    1.43    21.77154    26.38825   -11.01559
   215  H   1.0    0.06    1.03    1.43    19.12694    26.51558   -13.03600
   216  H   1.0    0.05    1.03    1.43    21.97898    25.82917   -16.74504
   217  H   1.0    0.05    1.02    1.43    24.62176    25.70772   -14.65220
   218  H   1.0    0.05    1.02    1.43    22.83531    21.78921   -12.67655
   219  H   1.0    0.05    1.02    1.43    20.16525    21.99144   -14.67786
   220  H   1.0    0.08    1.07    1.44    24.94548    22.05179   -17.37788
   221  H   1.0    0.09    1.04    1.43    20.99024    17.76344   -14.12050
   222  H   1.0    0.10    1.03    1.43    21.37750    15.38914   -16.24208
   223  H   1.0    0.10    1.03    1.43    25.83211    18.76908   -19.97808
   224  H   1.0    0.10    1.03    1.43    24.39877    15.85757   -19.48151
   225  N   5.0   -0.20    3.17    1.95    12.00964    37.67323   -17.95688
   226  C   4.0    0.03    4.17    3.93    11.53537    37.60308   -15.23456
   227  C   4.0    0.08    3.19    3.03    12.91383    39.69102   -13.77568
   228  O   6.0   -0.30    1.13    1.80    11.90401    40.89769   -12.02166
   229  C   4.0   -0.04    4.24    4.07    12.26251    34.99949   -14.16043
   230  C   4.0   -0.05    4.15    3.90    11.43769    34.50579   -11.36127
   231  C   4.0   -0.01    4.20    4.00    12.19532    31.77881   -10.55483
   232  N   5.0   -0.14    3.44    2.04    10.33896    30.11706   -11.88063
   233  C   4.0    0.10    3.34    3.06    10.66440    27.64712   -12.05057
   234  N   5.0   -0.17    3.30    1.98    12.87847    26.74566   -11.34246
   235  N   5.0   -0.18    3.23    1.96     8.93830    26.19783   -13.13096
   236  H   1.0    0.09    1.02    1.43    12.59285    36.06891   -18.84234
   237  H   1.0    0.05    1.05    1.44     9.50760    37.93300   -14.91179
   238  H   1.0    0.05    1.03    1.43    11.33075    33.57338   -15.31883
   239  H   1.0    0.06    1.02    1.43    14.30154    34.75415   -14.31317
   240  H   1.0    0.04    1.02    1.43    12.34894    35.88949   -10.14601
   241  H   1.0    0.04    1.02    1.43     9.40439    34.74265   -11.18418
   242  H   1.0    0.06    1.03    1.43    14.09644    31.39628   -11.24131
   243  H   1.0    0.04    1.02    1.43    12.03246    31.52011    -8.52532
   244  H   1.0    0.07    1.06    1.44     8.71694    30.90710   -12.54160
   245  H   1.0    0.10    1.06    1.44    14.10096    27.77524   -10.31602
   246  H   1.0    0.09    1.03    1.43    13.20655    24.85103   -11.48378
   247  H   1.0    0.09    1.03    1.43     7.23735    26.90457   -13.61946
   248  H   1.0    0.10    1.02    1.43     9.18567    24.30439   -13.42764
   249  N   5.0   -0.20    3.21    1.96     9.94744    45.54966    -9.28255
   250  C   4.0    0.04    4.23    4.05    10.72294    46.07495    -6.79643
   251  C   4.0    0.09    3.20    3.04    11.86036    48.74221    -6.53016
   252  O   6.0   -0.27    1.11    1.80    11.61882    50.00244    -4.59901
   253  C   4.0   -0.03    4.27    4.14    12.64690    44.14345    -5.70920
   254  C   4.0   -0.02    3.50    3.11    11.32175    41.71954    -4.85360
   255  C   4.0   -0.04    3.52    3.12     9.25152    41.75136    -3.20090
   256  C   4.0   -0.03    3.50    3.12    11.89916    39.38177    -5.75340
   257  C   4.0   -0.04    3.41    3.08     7.92410    39.62726    -2.56559
   258  C   4.0   -0.04    3.40    3.08    10.71884    37.14951    -4.92218
   259  C   4.0   -0.04    3.38    3.07     8.57867    37.31409    -3.47303
   260  H   1.0    0.12    1.04    1.44    10.80432    44.15391   -10.28825
   261  H   1.0    0.05    1.06    1.44     9.03876    46.10402    -5.57594
   262  H   1.0    0.05    1.03    1.43    14.04872    43.73521    -7.15692
   263  H   1.0    0.05    1.03    1.43    13.55701    45.02002    -4.08467
   264  H   1.0    0.05    1.03    1.43     8.68266    43.54402    -2.39219
   265  H   1.0    0.05    1.03    1.43    13.45735    39.19054    -7.06288
   266  H   1.0    0.05    1.03    1.43     6.28793    39.82984    -1.35715
   267  H   1.0    0.04    1.03    1.43    11.31425    35.38184    -5.72506
   268  H   1.0    0.05    1.03    1.43     7.51675    35.65679    -2.94549
   269  H   1.0    0.10    1.08    1.44     8.30637    40.87946     9.28297
   270  H   1.0    0.06    1.04    1.43    10.89431    32.10626     9.46256
   271  H   1.0    0.10    1.08    1.44     5.42129    31.67773     7.18771
   272  H   1.0    0.08    1.04    1.43     9.03560    17.30809    -3.49457
   273  H   1.0    0.10    1.07    1.44    26.44050    41.58851     5.19020
   274  H   1.0    0.06    1.04    1.44    20.33123    31.47007   -16.90112
   275  H   1.0    0.10    1.07    1.44    10.58288    38.11467   -18.77053
   276  H   1.0    0.06    1.04    1.44    14.69690    40.13364   -14.21817
   277  H   1.0    0.10    1.08    1.44     8.30637    45.10307    -9.28297
   278  H   1.0    0.07    1.05    1.44    12.83404    49.50133    -7.96080

  Z AO/shell   Hii/eV     exponent
  1     Wed Apr 25 08:07:45 CEST 2018   EN: 2.200 GM2: 0.406  GM3: 0.0800  RAES: 1.40
     1s    -10.707211    1.230000
  6     Wed Apr 25 08:07:45 CEST 2018   EN: 2.550 GM2: 0.538  GM3: 0.1500  RAES: 3.00
     2s    -13.970922    2.096432
     2p    -10.063292    1.800000
  7     Wed Apr 25 08:07:45 CEST 2018   EN: 3.040 GM2: 0.461  GM3:-0.0640  RAES: 1.90
     2s    -16.686243    2.339881
     2p    -12.523956    2.014332
  8     Wed Apr 25 08:07:45 CEST 2018   EN: 3.440 GM2: 0.452  GM3:-0.0517  RAES: 1.80
     2s    -20.229985    2.439742
     2p    -15.503117    2.137023
 no old-style atom pair restraining (fixing) potential

molecular fragmentation (1/2 indicates fragments):
111111111111111111111111111111111111111111112222222222222222222222222222
222222222222222222222222222222222222222222222222222222222222222222222222
222222222222222222222222222222222222222222222222222222222222222222222222
22222222222222222222222222222222222222222222222222221122222222
# atoms in fragment 1/2:    46   232
 fragment masses (1/2) :      306.39     1545.84
CMA distance (Bohr)    :  12.589
constraining FC (au)   :  0.0500
           ------------------------------------------------- 
          |        Self-Consistent Charge Iterations        |
           ------------------------------------------------- 

 Ncao       : 668
 Nao        : 668
 Nshell     : 408
 Nel        : 738
 T(el)      :   500.0
 intcut     :    35.0
 scfconv/Eh :  0.100E-06
   qconv/e  :  0.100E-04
 intneglect :  0.100E-08
 broydamp   :      0.400
 iter      E             dE          RMSdq      gap      omega  full diag
   1   -421.6412483 -0.421641E+03  0.459E+00    2.81       0.0  T
   2   -422.6237921 -0.982544E+00  0.215E+00    1.66       1.0  T
   3   -422.6866490 -0.628570E-01  0.122E+00    1.88       1.0  T
   4   -422.7593434 -0.726944E-01  0.261E-01    1.24       1.0  T
   5   -422.7634963 -0.415291E-02  0.129E-01    1.47       1.0  T
   6   -422.7644262 -0.929923E-03  0.503E-02    1.39       1.0  T
   7   -422.7645816 -0.155398E-03  0.224E-02    1.39       1.0  T
   8   -422.7646003 -0.186642E-04  0.101E-02    1.37       1.0  T
   9   -422.7646078 -0.755683E-05  0.436E-03    1.37       1.4  T
  10   -422.7646089 -0.104284E-05  0.205E-03    1.37       2.9  T
  11   -422.7646091 -0.270700E-06  0.895E-04    1.37       6.7  T
  12   -422.7646092 -0.485515E-07  0.400E-04    1.37      15.0  T
  13   -422.7646092 -0.114485E-07  0.186E-04    1.37      32.3  T
  14   -422.7646092 -0.169734E-08  0.883E-05    1.37      67.9  T
  15   -422.7646092 -0.491298E-09  0.359E-05    1.37     167.0  T
speedup  6.25
cpu  time for SCC   12.56 s
wall time for SCC    2.01 s

   *** convergence criteria satisfied after 15 iterations ***

          eigenvalues
 #    :         357        358        359        360        361        362        363        364
 occ. :        2.000      2.000      2.000      2.000      2.000      2.000      2.000      2.000
 eps  :       -10.805    -10.743    -10.740    -10.618    -10.499    -10.403    -10.192    -10.171
 #    :         365        366        367        368        369        370        371        372
 occ. :        2.000      2.000      2.000      2.000      2.000      0.000      0.000      0.000
 eps  :       -10.048    -10.004     -9.983     -9.898     -9.759     -8.390     -7.949     -7.909
 #    :         373        374        375        376        377        378        379        380
 occ. :        0.000      0.000      0.000      0.000      0.000      0.000      0.000      0.000
 eps  :        -7.809     -7.623     -6.766     -6.437     -6.325     -6.295     -6.250     -6.188


   #   Z            q   n(s)   n(p)   n(d)      C6AA      α(0)
   1   7 N     -0.385  1.294  4.090  0.000    29.946     8.127
   2   6 C      0.036  1.054  2.910  0.000    19.983     6.367
   3   6 C      0.263  1.049  2.689  0.000    22.574     7.781
   4   8 O     -0.492  1.738  4.754  0.000    23.602     6.514
   5   6 C     -0.078  1.061  3.017  0.000    21.992     6.676
   6   6 C      0.010  1.082  2.907  0.000    27.781     8.645
   7   6 C     -0.041  1.078  2.962  0.000    29.007     8.834
   8   6 C     -0.040  1.079  2.961  0.000    29.002     8.833
   9   6 C     -0.028  1.072  2.956  0.000    28.709     8.787
  10   6 C     -0.035  1.083  2.952  0.000    28.863     8.811
  11   6 C     -0.030  1.074  2.956  0.000    28.743     8.792
  12   1 H      0.167  0.833  0.000  0.000     1.289     1.779
  13   1 H      0.041  0.959  0.000  0.000     2.432     2.439
  14   1 H      0.055  0.945  0.000  0.000     2.258     2.350
  15   1 H      0.060  0.940  0.000  0.000     2.197     2.318
  16   1 H      0.034  0.966  0.000  0.000     2.528     2.487
  17   1 H      0.029  0.971  0.000  0.000     2.598     2.521
  18   1 H      0.030  0.970  0.000  0.000     2.582     2.513
  19   1 H      0.031  0.969  0.000  0.000     2.567     2.506
  20   1 H      0.028  0.972  0.000  0.000     2.616     2.529
  21   7 N     -0.161  1.246  3.916  0.000    24.487     7.349
  22   6 C      0.016  1.069  2.915  0.000    20.317     6.420
  23   6 C      0.203  1.097  2.700  0.000    23.693     7.971
  24   8 O     -0.375  1.758  4.617  0.000    21.180     6.170
  25   1 H      0.228  0.772  0.000  0.000     0.974     1.546
  26   1 H      0.103  0.897  0.000  0.000     1.754     2.071
  27   6 C     -0.081  1.062  3.020  0.000    22.054     6.687
  28   6 C     -0.072  1.052  3.020  0.000    21.875     6.660
  29   6 C     -0.026  1.057  2.969  0.000    21.129     6.562
  30   7 N     -0.170  1.248  3.922  0.000    24.677     7.378
  31   6 C      0.235  1.024  2.741  0.000    23.085     7.866
  32   7 N     -0.254  1.249  4.004  0.000    26.595     7.659
  33   7 N     -0.272  1.251  4.021  0.000    27.046     7.724
  34   1 H      0.092  0.908  0.000  0.000     1.857     2.131
  35   1 H      0.076  0.924  0.000  0.000     2.021     2.223
  36   1 H      0.074  0.926  0.000  0.000     2.046     2.237
  37   1 H      0.037  0.963  0.000  0.000     2.488     2.467
  38   1 H      0.096  0.904  0.000  0.000     1.819     2.109
  39   1 H      0.088  0.912  0.000  0.000     1.895     2.153
  40   1 H      0.240  0.760  0.000  0.000     0.923     1.505
  41   1 H      0.248  0.752  0.000  0.000     0.893     1.480
  42   1 H      0.239  0.761  0.000  0.000     0.928     1.509
  43   1 H      0.222  0.778  0.000  0.000     1.000     1.566
  44   1 H      0.243  0.757  0.000  0.000     0.911     1.495
  45   7 N     -0.388  1.299  4.088  0.000    30.031     8.139
  46   6 C      0.035  1.054  2.910  0.000    19.994     6.369
  47   6 C      0.259  1.054  2.688  0.000    22.643     7.793
  48   8 O     -0.509  1.742  4.767  0.000    23.981     6.566
  49   6 C     -0.072  1.064  3.009  0.000    21.876     6.658
  50   6 C     -0.007  1.050  2.957  0.000    20.671     6.467
  51   6 C     -0.108  1.040  3.068  0.000    22.577     6.769
  52   6 C     -0.112  1.040  3.073  0.000    22.677     6.785
  53   1 H      0.155  0.845  0.000  0.000     1.366     1.831
  54   1 H      0.036  0.964  0.000  0.000     2.508     2.477
  55   1 H      0.052  0.948  0.000  0.000     2.296     2.370
  56   1 H      0.047  0.953  0.000  0.000     2.353     2.399
  57   1 H      0.031  0.969  0.000  0.000     2.576     2.510
  58   1 H      0.039  0.961  0.000  0.000     2.461     2.453
  59   1 H      0.029  0.971  0.000  0.000     2.598     2.521
  60   1 H      0.044  0.956  0.000  0.000     2.400     2.423
  61   1 H      0.041  0.959  0.000  0.000     2.442     2.444
  62   1 H      0.045  0.955  0.000  0.000     2.384     2.415
  63   1 H      0.027  0.973  0.000  0.000     2.623     2.533
  64   7 N     -0.178  1.250  3.928  0.000    24.847     7.403
  65   6 C      0.032  1.054  2.914  0.000    20.043     6.374
  66   6 C      0.269  1.050  2.681  0.000    22.454     7.760
  67   8 O     -0.512  1.756  4.756  0.000    24.048     6.575
  68   6 C     -0.112  1.057  3.055  0.000    22.607     6.765
  69   6 C      0.292  1.020  2.688  0.000    22.045     7.688
  70   8 O     -0.508  1.754  4.754  0.000    23.958     6.563
  71   7 N     -0.280  1.262  4.018  0.000    27.242     7.752
  72   1 H      0.235  0.765  0.000  0.000     0.943     1.521
  73   1 H      0.085  0.915  0.000  0.000     1.925     2.170
  74   1 H      0.094  0.906  0.000  0.000     1.842     2.122
  75   1 H      0.075  0.925  0.000  0.000     2.028     2.227
  76   1 H      0.258  0.742  0.000  0.000     0.855     1.448
  77   1 H      0.213  0.787  0.000  0.000     1.040     1.598
  78   7 N     -0.183  1.253  3.929  0.000    24.961     7.420
  79   6 C      0.030  1.059  2.911  0.000    20.079     6.381
  80   6 C      0.280  1.044  2.676  0.000    22.256     7.726
  81   8 O     -0.508  1.756  4.752  0.000    23.954     6.562
  82   6 C     -0.049  1.052  2.998  0.000    21.448     6.592
  83   6 C     -0.101  1.066  3.035  0.000    22.427     6.743
  84   6 C      0.366  1.026  2.608  0.000    20.790     7.462
  85   8 O     -0.636  1.789  4.847  0.000    27.008     6.968
  86   8 O     -0.597  1.752  4.846  0.000    26.051     6.843
  87   1 H      0.234  0.766  0.000  0.000     0.950     1.526
  88   1 H      0.063  0.937  0.000  0.000     2.162     2.299
  89   1 H      0.049  0.951  0.000  0.000     2.330     2.387
  90   1 H      0.037  0.963  0.000  0.000     2.493     2.469
  91   1 H      0.029  0.971  0.000  0.000     2.602     2.523
  92   1 H      0.060  0.940  0.000  0.000     2.196     2.317
  93   7 N     -0.186  1.249  3.938  0.000    25.040     7.432
  94   6 C      0.027  1.066  2.907  0.000    20.129     6.390
  95   6 C      0.271  1.053  2.676  0.000    22.424     7.754
  96   8 O     -0.501  1.763  4.738  0.000    23.804     6.541
  97   6 C     -0.130  1.044  3.086  0.000    23.063     6.848
  98   1 H      0.199  0.801  0.000  0.000     1.112     1.652
  99   1 H      0.064  0.936  0.000  0.000     2.154     2.295
 100   1 H      0.075  0.925  0.000  0.000     2.033     2.230
 101   1 H      0.070  0.930  0.000  0.000     2.088     2.260
 102   1 H      0.074  0.926  0.000  0.000     2.047     2.237
 103   7 N     -0.186  1.249  3.937  0.000    25.039     7.432
 104   6 C      0.033  1.043  2.924  0.000    20.021     6.371
 105   6 C      0.275  1.045  2.680  0.000    22.352     7.742
 106   8 O     -0.490  1.749  4.741  0.000    23.557     6.507
 107   6 C     -0.088  1.064  3.023  0.000    22.144     6.695
 108   6 C     -0.017  1.059  2.958  0.000    20.853     6.495
 109   6 C     -0.122  1.043  3.078  0.000    22.863     6.813
 110   6 C     -0.120  1.042  3.079  0.000    22.865     6.819
 111   1 H      0.222  0.778  0.000  0.000     0.999     1.565
 112   1 H      0.076  0.924  0.000  0.000     2.025     2.226
 113   1 H      0.063  0.937  0.000  0.000     2.167     2.302
 114   1 H      0.075  0.925  0.000  0.000     2.035     2.231
 115   1 H      0.046  0.954  0.000  0.000     2.371     2.408
 116   1 H      0.048  0.952  0.000  0.000     2.345     2.395
 117   1 H      0.041  0.959  0.000  0.000     2.431     2.438
 118   1 H      0.062  0.938  0.000  0.000     2.177     2.307
 119   1 H      0.049  0.951  0.000  0.000     2.336     2.390
 120   1 H      0.054  0.946  0.000  0.000     2.265     2.354
 121   1 H      0.026  0.974  0.000  0.000     2.643     2.542
 122   7 N     -0.192  1.255  3.937  0.000    25.167     7.451
 123   6 C      0.027  1.067  2.906  0.000    20.134     6.391
 124   6 C      0.209  1.083  2.708  0.000    23.569     7.951
 125   8 O     -0.369  1.755  4.614  0.000    21.073     6.155
 126   6 C     -0.044  1.046  2.997  0.000    21.350     6.578
 127   6 C     -0.103  1.064  3.039  0.000    22.460     6.747
 128   6 C      0.366  1.022  2.612  0.000    20.793     7.463
 129   8 O     -0.638  1.785  4.853  0.000    27.078     6.977
 130   8 O     -0.611  1.756  4.856  0.000    26.401     6.889
 131   1 H      0.209  0.791  0.000  0.000     1.064     1.616
 132   1 H      0.100  0.900  0.000  0.000     1.787     2.091
 133   1 H      0.038  0.962  0.000  0.000     2.474     2.460
 134   1 H      0.050  0.950  0.000  0.000     2.316     2.380
 135   1 H      0.062  0.938  0.000  0.000     2.181     2.310
 136   1 H      0.065  0.935  0.000  0.000     2.136     2.285
 137   8 O     -0.586  1.736  4.850  0.000    24.855     6.729
 138   1 H      0.332  0.668  0.000  0.000     0.633     1.250
 139   1 H      0.309  0.691  0.000  0.000     0.694     1.308
 140   8 O     -0.625  1.742  4.882  0.000    25.787     6.854
 141   1 H      0.317  0.683  0.000  0.000     0.672     1.288
 142   1 H      0.281  0.719  0.000  0.000     0.780     1.387
 143   8 O     -0.652  1.759  4.893  0.000    26.459     6.942
 144   1 H      0.288  0.712  0.000  0.000     0.757     1.366
 145   1 H      0.315  0.685  0.000  0.000     0.677     1.292
 146   7 N     -0.395  1.325  4.069  0.000    30.223     8.165
 147   6 C      0.029  1.056  2.915  0.000    20.095     6.385
 148   6 C      0.282  1.039  2.678  0.000    22.218     7.719
 149   8 O     -0.492  1.735  4.758  0.000    23.614     6.515
 150   6 C     -0.068  1.059  3.009  0.000    21.781     6.641
 151   6 C     -0.008  1.051  2.957  0.000    20.694     6.470
 152   6 C     -0.125  1.042  3.083  0.000    22.932     6.825
 153   6 C     -0.114  1.045  3.069  0.000    22.724     6.796
 154   1 H      0.156  0.844  0.000  0.000     1.363     1.829
 155   1 H      0.047  0.953  0.000  0.000     2.357     2.401
 156   1 H      0.045  0.955  0.000  0.000     2.377     2.411
 157   1 H      0.036  0.964  0.000  0.000     2.502     2.474
 158   1 H      0.019  0.981  0.000  0.000     2.743     2.590
 159   1 H      0.054  0.946  0.000  0.000     2.270     2.356
 160   1 H      0.032  0.968  0.000  0.000     2.561     2.503
 161   1 H      0.051  0.949  0.000  0.000     2.307     2.375
 162   1 H      0.041  0.959  0.000  0.000     2.432     2.439
 163   1 H      0.045  0.955  0.000  0.000     2.389     2.417
 164   1 H      0.031  0.969  0.000  0.000     2.572     2.508
 165   7 N     -0.190  1.251  3.939  0.000    25.115     7.443
 166   6 C      0.022  1.068  2.910  0.000    20.208     6.401
 167   6 C      0.272  1.037  2.691  0.000    22.394     7.749
 168   8 O     -0.467  1.745  4.722  0.000    23.062     6.439
 169   6 C     -0.060  1.047  3.013  0.000    21.643     6.622
 170   6 C     -0.100  1.057  3.043  0.000    22.394     6.735
 171   6 C      0.300  1.027  2.674  0.000    21.916     7.665
 172   8 O     -0.505  1.744  4.761  0.000    23.897     6.554
 173   7 N     -0.285  1.268  4.017  0.000    27.352     7.767
 174   1 H      0.192  0.808  0.000  0.000     1.149     1.679
 175   1 H      0.058  0.942  0.000  0.000     2.222     2.331
 176   1 H      0.059  0.941  0.000  0.000     2.206     2.322
 177   1 H      0.067  0.933  0.000  0.000     2.113     2.273
 178   1 H      0.068  0.932  0.000  0.000     2.109     2.271
 179   1 H      0.056  0.944  0.000  0.000     2.252     2.347
 180   1 H      0.230  0.770  0.000  0.000     0.967     1.541
 181   1 H      0.233  0.767  0.000  0.000     0.954     1.530
 182   7 N     -0.168  1.246  3.921  0.000    24.625     7.370
 183   6 C      0.017  1.066  2.917  0.000    20.295     6.414
 184   6 C      0.267  1.044  2.689  0.000    22.496     7.767
 185   8 O     -0.505  1.757  4.747  0.000    23.885     6.552
 186   6 C     -0.026  1.065  2.960  0.000    20.993     6.517
 187   6 C     -0.060  1.053  3.008  0.000    21.657     6.625
 188   6 C     -0.128  1.045  3.084  0.000    23.023     6.842
 189   6 C     -0.107  1.039  3.068  0.000    22.603     6.781
 190   1 H      0.202  0.798  0.000  0.000     1.093     1.638
 191   1 H      0.069  0.931  0.000  0.000     2.099     2.265
 192   1 H      0.052  0.948  0.000  0.000     2.296     2.370
 193   1 H      0.048  0.952  0.000  0.000     2.341     2.393
 194   1 H      0.020  0.980  0.000  0.000     2.734     2.586
 195   1 H      0.061  0.939  0.000  0.000     2.184     2.311
 196   1 H      0.046  0.954  0.000  0.000     2.368     2.406
 197   1 H      0.063  0.937  0.000  0.000     2.164     2.300
 198   1 H      0.034  0.966  0.000  0.000     2.527     2.486
 199   1 H      0.035  0.965  0.000  0.000     2.514     2.479
 200   1 H      0.046  0.954  0.000  0.000     2.372     2.408
 201   7 N     -0.172  1.249  3.923  0.000    24.717     7.384
 202   6 C      0.016  1.060  2.924  0.000    20.312     6.418
 203   6 C      0.196  1.084  2.720  0.000    23.819     7.993
 204   8 O     -0.326  1.736  4.590  0.000    20.254     6.034
 205   6 C     -0.088  1.062  3.026  0.000    22.175     6.704
 206   6 C     -0.089  1.061  3.028  0.000    22.197     6.708
 207   6 C     -0.032  1.057  2.974  0.000    21.229     6.576
 208   7 N     -0.138  1.216  3.922  0.000    23.989     7.274
 209   6 C      0.231  1.022  2.747  0.000    23.160     7.879
 210   7 N     -0.251  1.252  3.999  0.000    26.534     7.650
 211   7 N     -0.255  1.236  4.020  0.000    26.635     7.665
 212   1 H      0.235  0.765  0.000  0.000     0.943     1.521
 213   1 H      0.086  0.914  0.000  0.000     1.918     2.166
 214   1 H      0.075  0.925  0.000  0.000     2.034     2.230
 215   1 H      0.087  0.913  0.000  0.000     1.912     2.162
 216   1 H      0.079  0.921  0.000  0.000     1.987     2.205
 217   1 H      0.070  0.930  0.000  0.000     2.088     2.259
 218   1 H      0.074  0.926  0.000  0.000     2.037     2.232
 219   1 H      0.097  0.903  0.000  0.000     1.816     2.108
 220   1 H      0.234  0.766  0.000  0.000     0.947     1.525
 221   1 H      0.243  0.757  0.000  0.000     0.912     1.496
 222   1 H      0.245  0.755  0.000  0.000     0.905     1.490
 223   1 H      0.255  0.745  0.000  0.000     0.865     1.457
 224   1 H      0.252  0.748  0.000  0.000     0.876     1.466
 225   7 N     -0.396  1.317  4.079  0.000    30.266     8.171
 226   6 C      0.039  1.057  2.905  0.000    19.946     6.363
 227   6 C      0.194  1.099  2.707  0.000    23.855     7.999
 228   8 O     -0.387  1.766  4.622  0.000    21.431     6.207
 229   6 C     -0.088  1.068  3.021  0.000    22.187     6.706
 230   6 C     -0.090  1.062  3.027  0.000    22.211     6.711
 231   6 C     -0.046  1.072  2.973  0.000    21.480     6.615
 232   7 N     -0.144  1.218  3.926  0.000    24.108     7.292
 233   6 C      0.230  1.014  2.756  0.000    23.171     7.881
 234   7 N     -0.234  1.223  4.011  0.000    26.132     7.592
 235   7 N     -0.249  1.226  4.023  0.000    26.482     7.643
 236   1 H      0.178  0.822  0.000  0.000     1.227     1.735
 237   1 H      0.055  0.945  0.000  0.000     2.264     2.353
 238   1 H      0.083  0.917  0.000  0.000     1.946     2.181
 239   1 H      0.074  0.926  0.000  0.000     2.047     2.237
 240   1 H      0.068  0.932  0.000  0.000     2.110     2.272
 241   1 H      0.074  0.926  0.000  0.000     2.038     2.232
 242   1 H      0.116  0.884  0.000  0.000     1.649     2.008
 243   1 H      0.080  0.920  0.000  0.000     1.977     2.199
 244   1 H      0.227  0.773  0.000  0.000     0.977     1.548
 245   1 H      0.249  0.751  0.000  0.000     0.886     1.474
 246   1 H      0.225  0.775  0.000  0.000     0.986     1.555
 247   1 H      0.242  0.758  0.000  0.000     0.916     1.499
 248   1 H      0.245  0.755  0.000  0.000     0.905     1.490
 249   7 N     -0.391  1.300  4.091  0.000    30.127     8.152
 250   6 C      0.050  1.051  2.899  0.000    19.754     6.332
 251   6 C      0.196  1.097  2.707  0.000    23.825     7.994
 252   8 O     -0.397  1.764  4.633  0.000    21.626     6.235
 253   6 C     -0.070  1.060  3.011  0.000    21.842     6.654
 254   6 C      0.016  1.083  2.901  0.000    27.656     8.626
 255   6 C     -0.037  1.079  2.958  0.000    28.924     8.821
 256   6 C     -0.036  1.080  2.956  0.000    28.897     8.817
 257   6 C     -0.029  1.071  2.958  0.000    28.724     8.790
 258   6 C     -0.045  1.082  2.963  0.000    29.112     8.849
 259   6 C     -0.034  1.073  2.961  0.000    28.840     8.807
 260   1 H      0.188  0.812  0.000  0.000     1.170     1.694
 261   1 H      0.049  0.951  0.000  0.000     2.333     2.388
 262   1 H      0.062  0.938  0.000  0.000     2.181     2.309
 263   1 H      0.046  0.954  0.000  0.000     2.375     2.410
 264   1 H      0.024  0.976  0.000  0.000     2.676     2.558
 265   1 H      0.044  0.956  0.000  0.000     2.394     2.420
 266   1 H      0.028  0.972  0.000  0.000     2.610     2.526
 267   1 H      0.049  0.951  0.000  0.000     2.337     2.391
 268   1 H      0.035  0.965  0.000  0.000     2.510     2.477
 269   1 H      0.181  0.819  0.000  0.000     1.209     1.723
 270   1 H      0.084  0.916  0.000  0.000     1.940     2.178
 271   1 H      0.176  0.824  0.000  0.000     1.235     1.741
 272   1 H      0.055  0.945  0.000  0.000     2.255     2.348
 273   1 H      0.189  0.811  0.000  0.000     1.165     1.690
 274   1 H      0.081  0.919  0.000  0.000     1.965     2.192
 275   1 H      0.179  0.821  0.000  0.000     1.217     1.728
 276   1 H      0.076  0.924  0.000  0.000     2.023     2.224
 277   1 H      0.183  0.817  0.000  0.000     1.197     1.714
 278   1 H      0.070  0.930  0.000  0.000     2.087     2.259

 Mol. C6AA /au·bohr⁶  :     688222.301307
 Mol. C8AA /au·bohr⁸  :   15187515.956525
 Mol. α(0) /au        :       1246.087770

 
 Wiberg/Mayer (AO) data. WBOs > 0.1 written file <wbo>
 largest (>0.05) Wiberg bond orders for each atom
           total WBO             WBO to atom ...
     1  N   3.014    C    2 1.038    H  269 0.954    H   12 0.949
     2  C   3.985    N    1 1.038    C    5 0.954    H   13 0.952    C    3 0.924    O    4 0.051
     3  C   3.941    O    4 1.604    N   21 1.325    C    2 0.924
     4  O   1.958    C    3 1.604    N   21 0.193    C    2 0.051
     5  C   3.992    C    6 1.002    H   14 0.973    H   15 0.961    C    2 0.954
     6  C   3.987    C    8 1.466    C    7 1.369    C    5 1.002    C   11 0.104
     7  C   3.992    C    9 1.476    C    6 1.369    H   16 0.963    C   10 0.124
     8  C   3.990    C    6 1.466    C   10 1.396    H   17 0.969    C    9 0.104
     9  C   3.994    C    7 1.476    C   11 1.418    H   18 0.968    C    8 0.104
    10  C   3.990    C   11 1.469    C    8 1.396    H   19 0.972    C    7 0.124
    11  C   3.992    C   10 1.469    C    9 1.418    H   20 0.969    C    6 0.104
    12  H   0.972    N    1 0.949
    13  H   0.998    C    2 0.952
    14  H   0.997    C    5 0.973
    15  H   0.996    C    5 0.961
    16  H   0.999    C    7 0.963
    17  H   0.999    C    8 0.969
    18  H   0.999    C    9 0.968
    19  H   0.999    C   10 0.972
    20  H   0.998    C   11 0.969
    21  N   3.481    C    3 1.325    C   22 0.969    H   25 0.915    O    4 0.193
    22  C   3.962    C   23 0.977    N   21 0.969    C   27 0.962    H   26 0.946    O   24 0.055
    23  C   3.886    O   24 1.861    C   22 0.977    H  270 0.955
    24  O   2.050    C   23 1.861    C   22 0.055
    25  H   0.948    N   21 0.915
    26  H   0.989    C   22 0.946
    27  C   3.981    C   28 1.004    H   35 0.972    H   34 0.966    C   22 0.962
    28  C   3.990    C   29 1.005    C   27 1.004    H   37 0.973    H   36 0.972
    29  C   3.949    C   28 1.005    N   30 0.974    H   39 0.967    H   38 0.947
    30  N   3.467    C   31 1.353    C   29 0.974    H   40 0.828    N   32 0.105    N   33 0.103
    31  C   3.974    N   30 1.353    N   32 1.300    N   33 1.282
    32  N   3.368    C   31 1.300    H   42 0.921    H   41 0.908    N   30 0.105    N   33 0.089
    33  N   3.363    C   31 1.282    H   44 0.920    H   43 0.920    N   30 0.103    N   32 0.089
    34  H   0.991    C   27 0.966
    35  H   0.994    C   27 0.972
    36  H   0.994    C   28 0.972
    37  H   0.999    C   28 0.973
    38  H   0.991    C   29 0.947
    39  H   0.992    C   29 0.967
    40  H   0.942    N   30 0.828    O   86 0.082
    41  H   0.939    N   32 0.908
    42  H   0.943    N   32 0.921
    43  H   0.951    N   33 0.920
    44  H   0.941    N   33 0.920
    45  N   3.006    C   46 1.024    H  271 0.956    H   53 0.951
    46  C   3.982    N   45 1.024    C   49 0.968    H   54 0.958    C   47 0.936
    47  C   3.942    O   48 1.596    N   64 1.326    C   46 0.936
    48  O   1.928    C   47 1.596    N   64 0.192
    49  C   3.991    C   50 0.991    H   56 0.974    H   55 0.971    C   46 0.968
    50  C   3.996    C   52 1.011    C   51 1.010    C   49 0.991    H   57 0.966
    51  C   3.995    C   50 1.010    H   58 0.984    H   60 0.984    H   59 0.983
    52  C   3.995    C   50 1.011    H   62 0.985    H   61 0.984    H   63 0.983
    53  H   0.976    N   45 0.951
    54  H   0.998    C   46 0.958
    55  H   0.997    C   49 0.971
    56  H   0.998    C   49 0.974
    57  H   0.999    C   50 0.966
    58  H   0.998    C   51 0.984
    59  H   0.999    C   51 0.983
    60  H   0.998    C   51 0.984
    61  H   0.998    C   52 0.984
    62  H   0.998    C   52 0.985
    63  H   0.999    C   52 0.983
    64  N   3.475    C   47 1.326    C   65 0.973    H   72 0.885    O   48 0.192
    65  C   3.971    C   68 0.976    N   64 0.973    C   66 0.955    H   73 0.941
    66  C   3.944    O   67 1.580    N   78 1.320    C   65 0.955
    67  O   1.917    C   66 1.580    N   78 0.192
    68  C   3.984    C   65 0.976    H   75 0.967    C   69 0.959    H   74 0.946    O   70 0.051
    69  C   3.955    O   70 1.585    N   71 1.384    C   68 0.959
    70  O   1.958    C   69 1.585    N   71 0.201    C   68 0.051
    71  N   3.425    C   69 1.384    H   77 0.913    H   76 0.833    O   70 0.201
    72  H   0.945    N   64 0.885
    73  H   0.992    C   65 0.941
    74  H   0.991    C   68 0.946
    75  H   0.994    C   68 0.967
    76  H   0.934    N   71 0.833    O  137 0.072
    77  H   0.954    N   71 0.913
    78  N   3.479    C   66 1.320    C   79 0.987    H   87 0.883    O   67 0.192
    79  C   3.970    N   78 0.987    C   82 0.966    H   88 0.950    C   80 0.944
    80  C   3.944    O   81 1.628    N   93 1.287    C   79 0.944
    81  O   1.939    C   80 1.628    N   93 0.190
    82  C   3.988    C   83 1.011    H   89 0.974    H   90 0.973    C   79 0.966
    83  C   3.989    C   82 1.011    H   91 0.971    H   92 0.956    C   84 0.920    O   85 0.053    O   86 0.051
    84  C   3.933    O   85 1.526    O   86 1.453    C   83 0.920
    85  O   1.815    C   84 1.526    O   86 0.204    C   83 0.053
    86  O   1.868    C   84 1.453    O   85 0.204    H   40 0.082    C   83 0.051
    87  H   0.945    N   78 0.883
    88  H   0.996    C   79 0.950
    89  H   0.998    C   82 0.974
    90  H   0.998    C   82 0.973
    91  H   0.999    C   83 0.971
    92  H   0.996    C   83 0.956
    93  N   3.453    C   80 1.287    C   94 0.971    H   98 0.925    O   81 0.190
    94  C   3.958    C   97 0.996    N   93 0.971    H   99 0.955    C   95 0.933
    95  C   3.946    O   96 1.645    N  103 1.291    C   94 0.933
    96  O   1.955    C   95 1.645    N  103 0.201
    97  C   3.983    C   94 0.996    H  100 0.982    H  102 0.982    H  101 0.979
    98  H   0.960    N   93 0.925
    99  H   0.996    C   94 0.955
   100  H   0.994    C   97 0.982
   101  H   0.995    C   97 0.979
   102  H   0.995    C   97 0.982
   103  N   3.460    C   95 1.291    C  104 0.974    H  111 0.901    O   96 0.201
   104  C   3.959    C  107 0.981    N  103 0.974    C  105 0.960    H  112 0.936
   105  C   3.947    O  106 1.637    N  122 1.269    C  104 0.960
   106  O   1.944    C  105 1.637    N  122 0.197
   107  C   3.980    C  108 0.981    C  104 0.981    H  113 0.968    H  114 0.966
   108  C   3.991    C  109 1.012    C  110 1.010    C  107 0.981    H  115 0.965
   109  C   3.993    C  108 1.012    H  116 0.984    H  118 0.980    H  117 0.980
   110  C   3.994    C  108 1.010    H  119 0.984    H  120 0.984    H  121 0.984
   111  H   0.950    N  103 0.901
   112  H   0.994    C  104 0.936
   113  H   0.996    C  107 0.968
   114  H   0.994    C  107 0.966
   115  H   0.998    C  108 0.965
   116  H   0.997    C  109 0.984
   117  H   0.998    C  109 0.980
   118  H   0.996    C  109 0.980
   119  H   0.997    C  110 0.984
   120  H   0.997    C  110 0.984
   121  H   0.999    C  110 0.984
   122  N   3.447    C  105 1.269    C  123 0.971    H  131 0.910    O  106 0.197
   123  C   3.966    C  124 0.989    N  122 0.971    C  126 0.963    H  132 0.944    O  125 0.054
   124  C   3.900    O  125 1.883    C  123 0.989    H  272 0.958
   125  O   2.022    C  124 1.883    C  123 0.054
   126  C   3.985    C  127 1.004    H  133 0.973    H  134 0.971    C  123 0.963
   127  C   3.990    C  126 1.004    H  135 0.964    H  136 0.952    C  128 0.950
   128  C   3.935    O  129 1.530    O  130 1.423    C  127 0.950
   129  O   1.815    C  128 1.530    O  130 0.207
   130  O   1.844    C  128 1.423    O  129 0.207    H  145 0.064
   131  H   0.956    N  122 0.910
   132  H   0.990    C  123 0.944
   133  H   0.998    C  126 0.973
   134  H   0.997    C  126 0.971
   135  H   0.996    C  127 0.964
   136  H   0.996    C  127 0.952
   137  O   1.926    H  139 0.874    H  138 0.834    H   76 0.072
   138  H   0.890    O  137 0.834
   139  H   0.904    O  137 0.874
   140  O   1.819    H  142 0.914    H  141 0.842
   141  H   0.899    O  140 0.842
   142  H   0.921    O  140 0.914
   143  O   1.785    H  144 0.915    H  145 0.834
   144  H   0.917    O  143 0.915
   145  H   0.901    O  143 0.834    O  130 0.064
   146  N   2.987    C  147 1.008    H  154 0.960    H  273 0.951
   147  C   3.985    N  146 1.008    C  148 0.969    H  155 0.957    C  150 0.957
   148  C   3.944    O  149 1.644    N  165 1.263    C  147 0.969
   149  O   1.948    C  148 1.644    N  165 0.193
   150  C   3.994    C  151 1.004    H  157 0.974    H  156 0.971    C  147 0.957
   151  C   3.996    C  152 1.013    C  150 1.004    C  153 0.998    H  158 0.966
   152  C   3.994    C  151 1.013    H  161 0.983    H  159 0.980    H  160 0.979
   153  C   3.995    C  151 0.998    H  164 0.987    H  163 0.986    H  162 0.985
   154  H   0.976    N  146 0.960
   155  H   0.998    C  147 0.957
   156  H   0.997    C  150 0.971
   157  H   0.999    C  150 0.974
   158  H   1.000    C  151 0.966
   159  H   0.997    C  152 0.980
   160  H   0.999    C  152 0.979
   161  H   0.997    C  152 0.983
   162  H   0.998    C  153 0.985
   163  H   0.998    C  153 0.986
   164  H   0.999    C  153 0.987
   165  N   3.446    C  148 1.263    C  166 0.976    H  174 0.931    O  149 0.193
   166  C   3.965    C  169 0.986    N  165 0.976    H  175 0.955    C  167 0.917    O  168 0.053
   167  C   3.952    O  168 1.654    N  182 1.305    C  166 0.917
   168  O   1.973    C  167 1.654    N  182 0.201    C  166 0.053
   169  C   3.990    C  170 1.000    C  166 0.986    H  177 0.971    H  176 0.971
   170  C   3.994    C  169 1.000    H  179 0.973    H  178 0.960    C  171 0.951    O  172 0.058
   171  C   3.945    O  172 1.645    N  173 1.323    C  170 0.951
   172  O   1.948    C  171 1.645    N  173 0.200    C  170 0.058
   173  N   3.401    C  171 1.323    H  180 0.925    H  181 0.920    O  172 0.200
   174  H   0.963    N  165 0.931
   175  H   0.997    C  166 0.955
   176  H   0.996    C  169 0.971
   177  H   0.995    C  169 0.971
   178  H   0.995    C  170 0.960
   179  H   0.997    C  170 0.973
   180  H   0.947    N  173 0.925
   181  H   0.945    N  173 0.920
   182  N   3.473    C  167 1.305    C  183 0.967    H  190 0.922    O  168 0.201
   183  C   3.958    C  186 0.967    N  182 0.967    H  191 0.951    C  184 0.932
   184  C   3.954    O  185 1.616    N  201 1.330    C  183 0.932
   185  O   1.931    C  184 1.616    N  201 0.201
   186  C   3.988    C  188 1.000    C  187 0.993    C  183 0.967    H  192 0.965
   187  C   3.994    C  189 1.015    C  186 0.993    H  193 0.976    H  194 0.975
   188  C   3.990    C  186 1.000    H  196 0.985    H  197 0.982    H  195 0.979
   189  C   3.994    C  187 1.015    H  199 0.989    H  198 0.987    H  200 0.981
   190  H   0.959    N  182 0.922
   191  H   0.995    C  183 0.951
   192  H   0.997    C  186 0.965
   193  H   0.998    C  187 0.976
   194  H   1.000    C  187 0.975
   195  H   0.996    C  188 0.979
   196  H   0.998    C  188 0.985
   197  H   0.996    C  188 0.982
   198  H   0.998    C  189 0.987
   199  H   0.999    C  189 0.989
   200  H   0.998    C  189 0.981
   201  N   3.481    C  184 1.330    C  202 0.966    H  212 0.875    O  185 0.201
   202  C   3.959    C  203 0.975    N  201 0.966    C  205 0.960    H  213 0.958    O  204 0.055
   203  C   3.908    O  204 1.919    C  202 0.975    H  274 0.952
   204  O   2.062    C  203 1.919    C  202 0.055
   205  C   3.980    C  206 1.006    H  215 0.970    H  214 0.970    C  202 0.960
   206  C   3.987    C  205 1.006    C  207 1.001    H  216 0.974    H  217 0.974
   207  C   3.953    C  206 1.001    N  208 0.984    H  219 0.963    H  218 0.962
   208  N   3.473    C  209 1.321    C  207 0.984    H  220 0.913    N  211 0.107    N  210 0.096
   209  C   3.976    N  208 1.321    N  211 1.321    N  210 1.302
   210  N   3.370    C  209 1.302    H  222 0.920    H  221 0.915    N  211 0.097    N  208 0.096
   211  N   3.397    C  209 1.321    H  224 0.917    H  223 0.916    N  208 0.107    N  210 0.097
   212  H   0.945    N  201 0.875
   213  H   0.992    C  202 0.958
   214  H   0.994    C  205 0.970
   215  H   0.992    C  205 0.970
   216  H   0.994    C  206 0.974
   217  H   0.995    C  206 0.974
   218  H   0.994    C  207 0.962
   219  H   0.991    C  207 0.963
   220  H   0.945    N  208 0.913
   221  H   0.941    N  210 0.915
   222  H   0.940    N  210 0.920
   223  H   0.935    N  211 0.916
   224  H   0.936    N  211 0.917
   225  N   2.991    C  226 1.011    H  275 0.957    H  236 0.949
   226  C   3.983    N  225 1.011    C  227 0.982    C  229 0.959    H  237 0.957    O  228 0.055
   227  C   3.886    O  228 1.869    C  226 0.982    H  276 0.956
   228  O   2.026    C  227 1.869    C  226 0.055
   229  C   3.984    C  230 1.002    H  239 0.972    H  238 0.965    C  226 0.959
   230  C   3.987    C  231 1.006    C  229 1.002    H  241 0.970    H  240 0.969
   231  C   3.946    C  230 1.006    N  232 0.967    H  243 0.961    H  242 0.953
   232  N   3.460    C  233 1.318    C  231 0.967    H  244 0.912    N  235 0.102    N  234 0.101
   233  C   3.978    N  234 1.321    N  232 1.318    N  235 1.313
   234  N   3.405    C  233 1.321    H  246 0.927    H  245 0.900    N  235 0.101    N  232 0.101
   235  N   3.394    C  233 1.313    H  247 0.921    H  248 0.919    N  232 0.102    N  234 0.101
   236  H   0.968    N  225 0.949
   237  H   0.997    C  226 0.957
   238  H   0.993    C  229 0.965
   239  H   0.995    C  229 0.972
   240  H   0.995    C  230 0.969
   241  H   0.994    C  230 0.970
   242  H   0.987    C  231 0.953
   243  H   0.993    C  231 0.961
   244  H   0.948    N  232 0.912
   245  H   0.938    N  234 0.900
   246  H   0.949    N  234 0.927
   247  H   0.941    N  235 0.921
   248  H   0.940    N  235 0.919
   249  N   3.015    C  250 1.043    H  277 0.953    H  260 0.929
   250  C   3.987    N  249 1.043    C  251 0.967    H  261 0.947    C  253 0.937    O  252 0.059
   251  C   3.882    O  252 1.881    C  250 0.967    H  278 0.954
   252  O   2.019    C  251 1.881    C  250 0.059
   253  C   3.990    C  254 1.001    H  262 0.971    H  263 0.964    C  250 0.937
   254  C   3.987    C  256 1.464    C  255 1.370    C  253 1.001    C  259 0.104
   255  C   3.992    C  257 1.476    C  254 1.370    H  264 0.965    C  258 0.123
   256  C   3.989    C  254 1.464    C  258 1.396    H  265 0.961    C  257 0.104
   257  C   3.993    C  255 1.476    C  259 1.417    H  266 0.967    C  256 0.104
   258  C   3.988    C  259 1.468    C  256 1.396    H  267 0.956    C  255 0.123
   259  C   3.991    C  258 1.468    C  257 1.417    H  268 0.965    C  254 0.104
   260  H   0.965    N  249 0.929
   261  H   0.997    C  250 0.947
   262  H   0.996    C  253 0.971
   263  H   0.998    C  253 0.964
   264  H   0.999    C  255 0.965
   265  H   0.998    C  256 0.961
   266  H   0.999    C  257 0.967
   267  H   0.997    C  258 0.956
   268  H   0.998    C  259 0.965
   269  H   0.967    N    1 0.954
   270  H   0.993    C   23 0.955
   271  H   0.969    N   45 0.956
   272  H   0.997    C  124 0.958
   273  H   0.964    N  146 0.951
   274  H   0.993    C  203 0.952
   275  H   0.968    N  225 0.957
   276  H   0.994    C  227 0.956
   277  H   0.967    N  249 0.953
   278  H   0.995    C  251 0.954
 
molecular dipole:
                 x           y           z       tot (Debye)
 q only:       23.154      32.989     -24.534
   full:       22.064      33.438     -22.842     117.219
molecular quadrupole (traceless):
                xx          xy          yy          xz          yz          zz
 q only:     -177.218     884.052     516.478    -682.555    -754.342    -339.260
  q+dip:     -213.912     835.086     576.503    -673.631    -669.445    -362.591
   full:     -214.717     832.513     576.556    -671.415    -670.733    -361.838
speedup  6.57
cpu  time for grad   13.99 s
wall time for grad    2.13 s

SCC energy    :    -422.7792651
rep           :       5.2810038
ES            :       1.3327401
AES           :      -0.0598784
AXC           :       0.1546590
disp          :      -0.3364627
XB            :       0.0000000
fix           :       0.0000000
Gborn         :       0.0000000
Gsasa         :       0.0000000
Ghb           :       0.0000000
Gshift        :       0.0000000
Gsolv         :      -0.3575388     -224.36
Etot ala COSMO:    -422.7792651
grad norm     :       0.5654128
total E       :    -417.4669266
atomizationE  :      76.2752165    47863.42
(atE without considering molecular charge,
 total energy contains solvation terms)
H-L gap (eV)  :          1.3696

------------------------------------------------------------------------
 * finished run on 2019/02/16 at 08:10:12.254     
------------------------------------------------------------------------
 total:
 * wall-time:     0 d,  0 h,  0 min,  2.360 sec
 *  cpu-time:     0 d,  0 h,  0 min, 16.360 sec
 * ratio c/w:     6.934 speedup
 SCF:
 * wall-time:     0 d,  0 h,  0 min,  2.245 sec
 *  cpu-time:     0 d,  0 h,  0 min, 15.122 sec
 * ratio c/w:     6.735 speedup

