      -----------------------------------------------------------      
     |                   =====================                   |     
     |                           x T B                           |     
     |                   =====================                   |     
     |                         S. Grimme                         |     
     |          Mulliken Center for Theoretical Chemistry        |     
     |                    University of Bonn                     |     
     |                 Version 6.0.1 (SAW181210)                 |     
      -----------------------------------------------------------      

   This program is distributed in the hope that it will be useful,
   but WITHOUT ANY WARRANTY; without even the implied warranty of
   MERCHANTABILITY or FITNESS FOR A PARTICULAR PURPOSE.
   
   FOR NON-COMMERCIAL, ACADEMIA USE ONLY.
   
   Cite this work as:
   S. Grimme, C. Bannwarth, P. Shushkov, J. Comput. Theory Chem., 2017,
   13, 1989-2009.
   C. Bannwarth, S. Ehlert and S. Grimme., ChemRxiv, 2018, preprint.
   http://doi.org/10.26434/chemrxiv.7246238.v1
   
   for sTDA-xTB:
   S. Grimme and C. Bannwarth, J. Chem. Phys., 2016, 145, 054103.
   
   in the mass-spec context:
   V. Asgeirsson, C. Bauer and S. Grimme, Chem. Sci., 2017, 8, 4879.
   
   if GBSA is used:
   P. Shushkov, F. März and S. Grimme, unpublished.
   
   for ANC optimizer:
   S. Grimme, unpublished.
   Rational Function algorithm used in ANCopt:
   F. Eckert, P. Pulay, H.-J. Werner, J. Comput. Chem., 1997, 18, 1473.
   
   with help from (in alphabetical order)
   C. Bannwarth, F. Bohle, G. Brandenburg, E. Caldeweyher, M. Checinski,
   S. Dohm, S. Ehlert, S. Ehrlich, F. März, H. Neugebauer, J. Pisarek,
   P. Pracht, P. Shushkov, and S. Spicher.
   
 * started run on 2019/02/16 at 08:09:53.638     
========================================================================
 # omp threads = 12
========================================================================
number of atoms            : 285
number of electrons        : 764
charge                     : 3
spin                       : .0
first test random number   : .8052

########################################################################
# WARNING! Please study the warnings concerning your input carefully
#  - Process number higher than OMP_NUM_THREADS, I hope you know what you are doing.
########################################################################

           ------------------------------------------------- 
          |                 G F N 2 - x T B                 |
          | Geometry, Frequencies, Noncovalent interactions |
          |            JCTC 2018 parametrisation            |
           ------------------------------------------------- 
 
      method parameters     
 k(s)        :  1.8500
 k(p)        :  2.2300
 k(d)        :  2.2300
 k(f)        :  2.0000
 kEN (H0ij)  : -2.0000
 D4 a1       :  0.5200
 D4 a2       :  5.0000
 D4 s6       :  1.0000
 D4 s8       :  2.7000
 D4 s9       :  5.0000
 alphaj      :  2.0000

 Solvent             : h2o
 Using internal parameter file: .param_gbsa2_h2o
 Gsolv ref. state (COSMO-RS): gsolv [1 M gas/solution]
 temperature (mdtemp)       :    298.150000000000     
 dielectric constant        :    80.2000000000000     
 rho                        :    1.00000000000000     
 mass                       :    18.0000000000000     
 surface tension            :    15.5689454083859     
 probe radius               :   0.975313790000000     
 vdW radii scaling          :    1.00000000000000     
 Gshift (Eh)                :   1.857443126794793E-003
 c1                         :    1.55243817000000     
 soset                      :   0.130326360000000     
 HB correction              :  T

            Z     q(EN)     CN     RAES       Cart. coordinates
     1  N   5.0   -0.11    4.12    3.21    27.24587    28.66014   -22.37147
     2  C   4.0    0.00    4.30    4.19    29.00875    30.78559   -21.69452
     3  C   4.0    0.15    3.42    3.09    28.24810    31.61130   -18.98869
     4  O   6.0   -0.32    1.33    1.80    25.97217    31.60175   -18.52038
     5  C   4.0   -0.03    4.24    4.09    28.63921    33.01366   -23.52341
     6  C   4.0   -0.02    4.15    3.89    30.92084    34.78053   -23.58886
     7  C   4.0    0.26    3.07    3.02    30.96627    36.57514   -25.97818
     8  O   6.0   -0.27    1.18    1.80    28.87669    36.96544   -27.00801
     9  O   6.0   -0.23    1.15    1.80    33.05958    37.45295   -26.64011
    10  H   1.0    0.07    1.03    1.43    26.54384    28.92882   -24.16381
    11  H   1.0    0.09    1.09    1.44    28.16646    26.85517   -22.30966
    12  H   1.0    0.08    1.06    1.44    25.73270    28.80163   -21.12795
    13  H   1.0    0.05    1.04    1.43    30.95761    30.12679   -21.77136
    14  H   1.0    0.06    1.03    1.43    28.41495    32.29924   -25.44936
    15  H   1.0    0.06    1.03    1.43    26.96005    34.09439   -23.02912
    16  H   1.0    0.06    1.02    1.43    30.97197    36.01554   -21.93410
    17  H   1.0    0.06    1.02    1.43    32.69386    33.72923   -23.65255
    18  N   5.0   -0.14    3.58    2.14    30.06210    32.02813   -17.35437
    19  C   4.0    0.04    4.46    4.48    29.62042    32.73959   -14.75987
    20  C   4.0    0.15    3.37    3.07    30.20239    35.56771   -14.48529
    21  O   6.0   -0.28    1.21    1.80    31.90105    36.63705   -15.67344
    22  H   1.0    0.09    1.08    1.44    31.89874    32.09052   -17.90301
    23  H   1.0    0.07    1.07    1.44    27.61876    32.44746   -14.34509
    24  C   4.0   -0.03    4.32    4.23    31.18974    30.95942   -13.07509
    25  C   4.0   -0.01    3.64    3.19    30.75315    28.33101   -14.02018
    26  C   4.0   -0.04    3.54    3.14    31.96771    27.43629   -16.18374
    27  C   4.0   -0.04    3.48    3.11    29.14249    26.72208   -12.75262
    28  C   4.0   -0.03    3.44    3.09    31.47254    25.06042   -17.12357
    29  C   4.0   -0.05    3.45    3.10    28.74867    24.28264   -13.58331
    30  C   4.0    0.07    3.46    3.10    29.85566    23.46885   -15.82229
    31  O   6.0   -0.24    2.11    1.84    29.35396    21.13226   -16.81112
    32  H   1.0    0.06    1.03    1.43    33.17885    31.46408   -13.25126
    33  H   1.0    0.05    1.03    1.43    30.60961    31.18701   -11.11627
    34  H   1.0    0.07    1.06    1.44    33.39460    28.55930   -17.08495
    35  H   1.0    0.06    1.03    1.43    28.22524    27.36754   -11.04813
    36  H   1.0    0.07    1.03    1.43    32.34833    24.39479   -18.83274
    37  H   1.0    0.05    1.03    1.43    27.57029    23.01899   -12.50256
    38  H   1.0    0.12    1.04    1.43    28.59452    20.07079   -15.53112
    39  N   5.0   -0.13    3.51    2.08    28.50270    36.79420   -13.01248
    40  C   4.0    0.04    4.39    4.37    28.75703    39.50689   -12.50403
    41  C   4.0    0.14    3.43    3.09    28.72038    39.88637    -9.63530
    42  O   6.0   -0.32    1.34    1.80    27.67011    38.27397    -8.29565
    43  C   4.0   -0.03    4.37    4.33    26.46963    40.83792   -13.63299
    44  C   4.0   -0.01    3.59    3.16    26.20581    40.49288   -16.40098
    45  C   4.0   -0.03    3.46    3.10    24.81272    38.48158   -17.37939
    46  C   4.0   -0.03    3.48    3.10    27.45641    42.13383   -18.01887
    47  C   4.0   -0.03    3.40    3.08    24.76421    38.13007   -19.95288
    48  C   4.0   -0.03    3.37    3.07    27.47889    41.67711   -20.60829
    49  C   4.0   -0.04    3.38    3.07    26.12724    39.68342   -21.56303
    50  H   1.0    0.12    1.10    1.44    27.11296    35.86513   -12.07424
    51  H   1.0    0.07    1.05    1.44    30.52055    40.16488   -13.35172
    52  H   1.0    0.05    1.04    1.43    24.79690    40.09357   -12.66996
    53  H   1.0    0.05    1.03    1.43    26.58788    42.85417   -13.18042
    54  H   1.0    0.07    1.03    1.43    23.82873    37.21565   -16.12238
    55  H   1.0    0.06    1.03    1.43    28.51593    43.68741   -17.22822
    56  H   1.0    0.06    1.03    1.43    23.72473    36.55168   -20.71724
    57  H   1.0    0.07    1.03    1.43    28.55719    42.89048   -21.84482
    58  H   1.0    0.07    1.03    1.43    26.19493    39.28166   -23.56396
    59  N   5.0   -0.14    3.56    2.12    29.85008    41.82703    -8.51649
    60  C   4.0    0.04    4.50    4.54    29.81550    42.35633    -5.91945
    61  C   4.0    0.09    3.28    3.05    28.46056    44.84830    -5.48484
    62  O   6.0   -0.28    1.15    1.80    28.72342    46.68165    -6.94364
    63  H   1.0    0.09    1.09    1.44    30.54953    43.20232    -9.65788
    64  H   1.0    0.06    1.07    1.44    28.79125    40.83592    -4.95907
    65  C   4.0    0.06    4.33    4.25    32.46041    42.39272    -4.99329
    66  O   6.0   -0.23    2.16    1.85    32.23390    42.34892    -2.38609
    67  C   4.0   -0.05    4.16    3.93    33.83655    44.60024    -6.17929
    68  H   1.0    0.06    1.05    1.44    33.37553    40.60898    -5.55642
    69  H   1.0    0.14    1.03    1.43    32.70042    43.97212    -1.68485
    70  H   1.0    0.07    1.00    1.43    35.79696    44.60136    -5.56745
    71  H   1.0    0.06    1.01    1.43    33.80432    44.45984    -8.22106
    72  H   1.0    0.08    1.01    1.43    33.00310    46.37682    -5.59358
    73  O   6.0   -0.31    1.94    1.82    21.72173    32.88494   -25.77008
    74  H   1.0    0.14    0.97    1.43    23.14849    33.93159   -26.18887
    75  H   1.0    0.14    0.97    1.43    21.16504    32.14231   -27.32993
    76  O   6.0   -0.29    1.93    1.82    31.69100    46.47715   -11.86285
    77  H   1.0    0.15    0.97    1.43    32.21365    48.02316   -12.66501
    78  H   1.0    0.15    0.98    1.43    30.59498    46.99955   -10.49277
    79  O   6.0   -0.32    1.96    1.82    35.81631    31.66873   -16.97862
    80  H   1.0    0.14    0.97    1.43    37.43509    31.28232   -17.69729
    81  H   1.0    0.15    0.97    1.43    35.71059    33.48326   -16.85871
    82  O   6.0   -0.31    2.06    1.83    29.69927    24.28226   -22.84633
    83  H   1.0    0.14    0.97    1.43    31.38410    24.47342   -23.49352
    84  H   1.0    0.15    0.97    1.43    28.79972    23.23125   -24.03282
    85  O   6.0   -0.26    1.92    1.82    20.47020    37.70021   -31.47675
    86  H   1.0    0.15    0.97    1.43    20.25365    35.90142   -31.41433
    87  H   1.0    0.15    0.97    1.43    18.77984    38.41623   -31.51858
    88  O   6.0   -0.29    1.92    1.82    39.50538    31.69100   -11.86285
    89  H   1.0    0.14    0.97    1.43    37.95937    32.21365   -12.66501
    90  H   1.0    0.13    0.97    1.43    38.98298    30.59498   -10.49277
    91  O   6.0   -0.30    1.95    1.82    34.86810    35.84944    -9.68605
    92  H   1.0    0.14    0.97    1.43    36.59649    36.28312   -10.03830
    93  H   1.0    0.13    0.97    1.43    34.06680    37.34123    -9.03479
    94  O   6.0   -0.26    1.91    1.82    14.49296    34.37669   -25.70733
    95  H   1.0    0.14    0.97    1.43    16.04202    33.43239   -25.90780
    96  H   1.0    0.15    0.97    1.43    13.57787    33.53500   -24.35793
    97  O   6.0   -0.26    1.92    1.82    31.66873    50.16622   -16.97862
    98  H   1.0    0.14    0.97    1.43    31.28232    48.54744   -17.69729
    99  H   1.0    0.15    0.97    1.43    33.48326    50.27194   -16.85871
   100  N   5.0   -0.16    3.26    1.97    49.18833    28.50270   -13.01248
   101  C   4.0    0.04    4.23    4.06    46.47564    28.75703   -12.50403
   102  C   4.0    0.10    3.21    3.04    46.09616    28.72038    -9.63530
   103  O   6.0   -0.23    1.14    1.80    47.70856    27.67011    -8.29565
   104  C   4.0   -0.03    4.37    4.34    45.14461    26.46963   -13.63299
   105  C   4.0   -0.01    3.60    3.16    45.48965    26.20581   -16.40098
   106  C   4.0   -0.03    3.47    3.10    47.50095    24.81272   -17.37939
   107  C   4.0   -0.03    3.48    3.10    43.84870    27.45641   -18.01887
   108  C   4.0   -0.01    3.39    3.08    47.85246    24.76421   -19.95288
   109  C   4.0   -0.02    3.37    3.07    44.30543    27.47889   -20.60829
   110  C   4.0   -0.01    3.38    3.07    46.29911    26.12724   -21.56303
   111  H   1.0    0.12    1.03    1.43    50.11740    27.11296   -12.07424
   112  H   1.0    0.06    1.04    1.43    45.81766    30.52055   -13.35172
   113  H   1.0    0.05    1.04    1.43    45.88896    24.79690   -12.66996
   114  H   1.0    0.05    1.03    1.43    43.12836    26.58788   -13.18042
   115  H   1.0    0.06    1.03    1.43    48.76688    23.82873   -16.12238
   116  H   1.0    0.06    1.03    1.43    42.29512    28.51593   -17.22822
   117  H   1.0    0.08    1.03    1.43    49.43085    23.72473   -20.71724
   118  H   1.0    0.07    1.03    1.43    43.09205    28.55719   -21.84482
   119  H   1.0    0.08    1.03    1.43    46.70087    26.19493   -23.56396
   120  N   5.0   -0.17    3.21    1.96    26.77711    35.84992    -0.37903
   121  C   4.0    0.03    4.36    4.32    27.32027    34.79518    -2.86750
   122  C   4.0    0.15    3.40    3.08    24.84794    33.76719    -4.03810
   123  O   6.0   -0.26    1.23    1.80    23.62879    32.22020    -2.83565
   124  C   4.0   -0.02    4.31    4.21    29.37148    32.81117    -2.64255
   125  C   4.0   -0.03    4.28    4.17    30.12649    32.08471    -5.28115
   126  C   4.0    0.16    3.24    3.04    32.49328    30.41934    -5.14356
   127  O   6.0   -0.27    1.23    1.80    32.48441    28.44145    -4.02600
   128  N   5.0   -0.17    3.20    1.96    34.47951    31.22832    -6.37107
   129  H   1.0    0.11    1.03    1.43    26.88115    34.58066     1.05914
   130  H   1.0    0.05    1.06    1.44    27.98562    36.37007    -4.04166
   131  H   1.0    0.06    1.03    1.43    30.96060    33.61249    -1.60355
   132  H   1.0    0.08    1.03    1.43    28.66171    31.16529    -1.62356
   133  H   1.0    0.06    1.03    1.43    28.63346    30.96342    -6.15464
   134  H   1.0    0.05    1.03    1.43    30.49634    33.74195    -6.44463
   135  H   1.0    0.10    1.05    1.44    34.43616    32.77716    -7.49902
   136  H   1.0    0.10    1.03    1.43    36.05136    30.12969    -6.49528
   137  N   5.0   -0.14    3.50    2.08    24.34794    34.52147    -6.35925
   138  C   4.0    0.04    4.50    4.54    21.92926    34.15481    -7.62342
   139  C   4.0    0.15    3.45    3.10    22.60554    32.93128   -10.16427
   140  O   6.0   -0.31    1.30    1.80    24.38111    33.81860   -11.41142
   141  C   4.0   -0.02    4.32    4.23    20.53336    36.62192    -8.03948
   142  C   4.0   -0.04    4.19    3.98    19.63581    37.66660    -5.47811
   143  C   4.0   -0.06    4.13    3.86    18.13863    36.17352    -9.67321
   144  C   4.0   -0.06    3.99    3.60    19.08404    40.53795    -5.47947
   145  H   1.0    0.11    1.11    1.45    25.48587    35.83886    -7.18060
   146  H   1.0    0.06    1.06    1.44    20.82625    32.87693    -6.42984
   147  H   1.0    0.05    1.05    1.44    21.79699    37.97006    -8.95579
   148  H   1.0    0.06    1.03    1.43    17.94997    36.64299    -4.88042
   149  H   1.0    0.06    1.03    1.43    21.09493    37.33263    -4.05427
   150  H   1.0    0.05    1.00    1.43    16.98960    37.86661    -9.72017
   151  H   1.0    0.06    1.00    1.43    18.63233    35.68626   -11.60779
   152  H   1.0    0.06    1.00    1.43    17.03114    34.64793    -8.86541
   153  H   1.0    0.07    1.00    1.43    18.33822    41.10920    -3.65853
   154  H   1.0    0.05    1.00    1.43    20.82358    41.56216    -5.84348
   155  H   1.0    0.06    1.00    1.43    17.70789    41.02461    -6.92230
   156  N   5.0   -0.14    3.45    2.05    21.22336    30.97847   -10.90868
   157  C   4.0    0.04    4.43    4.43    21.59071    29.75327   -13.34579
   158  C   4.0    0.16    3.44    3.09    19.71486    30.71838   -15.28059
   159  O   6.0   -0.27    1.25    1.80    17.46029    30.56766   -14.83917
   160  C   4.0   -0.04    4.26    4.12    21.14732    26.89644   -12.91131
   161  C   4.0   -0.04    4.16    3.91    22.61761    25.30054   -14.85910
   162  C   4.0   -0.00    4.17    3.95    22.17915    22.40313   -14.53835
   163  N   5.0   -0.13    3.40    2.02    23.52397    21.07951   -16.55085
   164  C   4.0    0.10    3.34    3.06    23.26151    18.62569   -17.09031
   165  N   5.0   -0.16    3.24    1.97    21.48591    17.27426   -15.89883
   166  N   5.0   -0.16    3.23    1.96    24.56588    17.70104   -19.04365
   167  H   1.0    0.09    1.07    1.44    19.70520    30.35684    -9.93155
   168  H   1.0    0.06    1.06    1.44    23.53812    30.11966   -13.92906
   169  H   1.0    0.05    1.03    1.43    21.77154    26.38825   -11.01559
   170  H   1.0    0.07    1.03    1.43    19.12694    26.51558   -13.03600
   171  H   1.0    0.06    1.03    1.43    21.97898    25.82917   -16.74504
   172  H   1.0    0.05    1.04    1.43    24.62176    25.70772   -14.65220
   173  H   1.0    0.04    1.02    1.43    22.83531    21.78921   -12.67655
   174  H   1.0    0.06    1.02    1.43    20.16525    21.99144   -14.67786
   175  H   1.0    0.09    1.07    1.44    24.94548    22.05179   -17.37788
   176  H   1.0    0.10    1.04    1.43    20.99024    17.76344   -14.12050
   177  H   1.0    0.11    1.03    1.43    21.37750    15.38914   -16.24208
   178  H   1.0    0.10    1.03    1.43    25.83211    18.76908   -19.97808
   179  H   1.0    0.11    1.03    1.43    24.39877    15.85757   -19.48151
   180  N   5.0   -0.13    3.37    2.01    20.73951    31.66983   -17.36449
   181  C   4.0    0.03    4.29    4.18    19.04352    32.37576   -19.41153
   182  C   4.0    0.16    3.33    3.06    18.63868    35.18491   -19.54565
   183  O   6.0   -0.29    1.28    1.80    18.12888    36.48227   -17.70269
   184  H   1.0    0.11    1.09    1.44    22.62662    31.92646   -17.56257
   185  H   1.0    0.05    1.03    1.43    19.82421    31.68390   -21.19304
   186  H   1.0    0.08    1.05    1.44    17.22119    31.47941   -19.04187
   187  N   5.0   -0.15    3.43    2.04    19.05511    36.23006   -21.81472
   188  C   4.0    0.04    4.29    4.18    18.77885    38.97248   -22.22027
   189  C   4.0    0.10    3.22    3.04    16.10572    39.94857   -21.67806
   190  O   6.0   -0.26    1.12    1.80    15.90829    41.92591   -20.42910
   191  H   1.0    0.09    1.08    1.44    19.60909    35.16692   -23.31765
   192  H   1.0    0.06    1.05    1.44    20.00768    39.96090   -20.87994
   193  C   4.0   -0.04    4.26    4.11    19.48539    39.47979   -24.99049
   194  C   4.0   -0.03    4.15    3.91    19.30399    42.21175   -25.93172
   195  C   4.0    0.00    4.19    3.98    21.87283    43.36528   -26.63233
   196  N   5.0   -0.13    3.39    2.02    22.97841    44.74903   -24.53613
   197  C   4.0    0.11    3.34    3.06    22.89746    47.23121   -24.18841
   198  N   5.0   -0.15    3.25    1.97    22.11042    48.80885   -25.96025
   199  N   5.0   -0.17    3.25    1.97    23.90858    48.19724   -22.07720
   200  H   1.0    0.05    1.03    1.43    21.40833    38.79479   -25.27709
   201  H   1.0    0.06    1.03    1.43    18.21235    38.32758   -26.13374
   202  H   1.0    0.06    1.03    1.43    18.10867    42.27495   -27.60241
   203  H   1.0    0.07    1.03    1.43    18.35735    43.41320   -24.54742
   204  H   1.0    0.06    1.03    1.43    23.20236    41.88516   -27.17510
   205  H   1.0    0.06    1.03    1.43    21.64131    44.62268   -28.24100
   206  H   1.0    0.08    1.07    1.44    23.61278    43.66638   -23.09005
   207  H   1.0    0.11    1.03    1.43    21.32738    48.21719   -27.61638
   208  H   1.0    0.11    1.04    1.43    21.92087    50.65564   -25.56300
   209  H   1.0    0.09    1.03    1.43    24.44397    47.06891   -20.63973
   210  H   1.0    0.11    1.03    1.43    23.78244    50.05998   -21.72202
   211  N   5.0   -0.17    3.20    1.96    15.32144    39.99464   -14.48287
   212  C   4.0    0.04    4.20    4.00    16.76298    42.04858   -13.45843
   213  C   4.0    0.11    3.26    3.05    15.59107    44.58495   -13.87661
   214  O   6.0   -0.23    1.11    1.80    15.24760    46.19239   -12.20298
   215  C   4.0   -0.03    4.27    4.14    19.50686    42.07258   -14.56151
   216  C   4.0   -0.01    3.51    3.12    20.99704    44.50451   -13.95690
   217  C   4.0   -0.03    3.51    3.12    21.96495    45.06361   -11.58018
   218  C   4.0   -0.03    3.44    3.09    21.45440    46.26485   -15.83483
   219  C   4.0   -0.02    3.34    3.06    23.24060    47.23795   -10.87986
   220  C   4.0   -0.02    3.39    3.08    22.69934    48.51787   -15.19797
   221  C   4.0   -0.01    3.38    3.07    23.48799    49.03466   -12.74539
   222  H   1.0    0.13    1.05    1.44    16.06707    38.95330   -15.91828
   223  H   1.0    0.05    1.05    1.44    16.87956    41.84230   -11.39205
   224  H   1.0    0.04    1.02    1.43    20.49410    40.42292   -13.83590
   225  H   1.0    0.06    1.03    1.43    19.33679    41.91867   -16.60773
   226  H   1.0    0.05    1.03    1.43    21.68045    43.63259   -10.13204
   227  H   1.0    0.06    1.03    1.43    20.78163    45.98106   -17.73719
   228  H   1.0    0.08    1.03    1.43    23.98523    47.47858    -9.00688
   229  H   1.0    0.07    1.03    1.43    22.94963    49.93583   -16.63950
   230  H   1.0    0.08    1.03    1.43    24.35227    50.82662   -12.37136
   231  N   5.0   -0.18    3.19    1.95    45.98790    15.32144   -14.48287
   232  C   4.0    0.04    4.20    3.99    43.93395    16.76298   -13.45843
   233  C   4.0    0.10    3.26    3.05    41.39758    15.59107   -13.87661
   234  O   6.0   -0.29    1.16    1.80    39.79014    15.24760   -12.20298
   235  C   4.0   -0.03    4.27    4.14    43.90995    19.50686   -14.56151
   236  C   4.0   -0.01    3.51    3.12    41.47803    20.99704   -13.95690
   237  C   4.0   -0.03    3.51    3.12    40.91892    21.96495   -11.58018
   238  C   4.0   -0.03    3.44    3.09    39.71768    21.45440   -15.83483
   239  C   4.0   -0.03    3.34    3.06    38.74458    23.24060   -10.87986
   240  C   4.0   -0.03    3.39    3.08    37.46466    22.69934   -15.19797
   241  C   4.0   -0.03    3.38    3.07    36.94787    23.48799   -12.74539
   242  H   1.0    0.10    1.02    1.43    47.02923    16.06707   -15.91828
   243  H   1.0    0.07    1.05    1.44    44.14023    16.87956   -11.39205
   244  H   1.0    0.05    1.02    1.43    45.55961    20.49410   -13.83590
   245  H   1.0    0.05    1.03    1.43    44.06386    19.33679   -16.60773
   246  H   1.0    0.06    1.03    1.43    42.34994    21.68045   -10.13204
   247  H   1.0    0.06    1.03    1.43    40.00147    20.78163   -17.73719
   248  H   1.0    0.06    1.03    1.43    38.50395    23.98523    -9.00688
   249  H   1.0    0.06    1.03    1.43    36.04670    22.94963   -16.63950
   250  H   1.0    0.06    1.03    1.43    35.15591    24.35227   -12.37136
   251  N   5.0   -0.17    3.15    1.95    36.54424    13.27482    -8.45668
   252  C   4.0    0.04    4.14    3.89    34.01076    14.49205    -8.40819
   253  C   4.0    0.10    3.21    3.04    31.95429    12.40793    -8.34143
   254  O   6.0   -0.23    1.10    1.80    30.09712    12.59383    -6.89695
   255  H   1.0    0.13    1.06    1.44    37.63423    13.56950   -10.00156
   256  H   1.0    0.06    1.05    1.44    33.83457    15.55004    -6.64338
   257  C   4.0   -0.04    4.18    3.96    33.40799    16.29011   -10.65043
   258  C   4.0   -0.04    4.14    3.88    30.66706    17.28561   -10.81305
   259  C   4.0   -0.00    4.13    3.86    29.86138    19.21888    -8.77784
   260  N   5.0   -0.14    3.35    2.00    27.13035    19.77082    -8.92905
   261  C   4.0    0.10    3.33    3.06    25.80285    21.44360    -7.57387
   262  N   5.0   -0.17    3.23    1.96    26.88384    23.27307    -6.23893
   263  N   5.0   -0.18    3.24    1.97    23.28542    21.54359    -7.88781
   264  H   1.0    0.05    1.02    1.43    34.72045    17.87706   -10.56823
   265  H   1.0    0.06    1.03    1.43    33.77825    15.23544   -12.38726
   266  H   1.0    0.05    1.03    1.43    30.50230    18.15641   -12.67074
   267  H   1.0    0.06    1.03    1.43    29.36702    15.68271   -10.76919
   268  H   1.0    0.06    1.02    1.43    30.28470    18.45287    -6.91291
   269  H   1.0    0.05    1.02    1.43    30.89585    20.98490    -9.04494
   270  H   1.0    0.09    1.07    1.44    26.03535    18.36625    -9.71439
   271  H   1.0    0.10    1.03    1.43    28.61069    22.98042    -5.47572
   272  H   1.0    0.10    1.03    1.43    25.74842    24.47428    -5.24384
   273  H   1.0    0.10    1.03    1.43    22.45041    20.02784    -8.69953
   274  H   1.0    0.10    1.03    1.43    22.21430    22.70419    -6.80608
   275  H   1.0    0.07    1.04    1.43    27.31781    45.05500    -3.99404
   276  H   1.0    0.11    1.09    1.44    49.42846    28.18104   -14.66518
   277  H   1.0    0.07    1.04    1.43    44.56987    29.53362    -8.87364
   278  H   1.0    0.11    1.07    1.44    27.89158    37.08661    -0.03100
   279  H   1.0    0.08    1.04    1.43    14.60434    38.99969   -22.32347
   280  H   1.0    0.11    1.08    1.44    15.00012    38.85982   -13.25751
   281  H   1.0    0.09    1.05    1.44    15.01950    45.08815   -15.60611
   282  H   1.0    0.12    1.08    1.44    47.12271    15.00012   -13.25751
   283  H   1.0    0.07    1.05    1.44    40.89438    15.01950   -15.60611
   284  H   1.0    0.12    1.06    1.44    37.46733    13.83257    -7.14162
   285  H   1.0    0.08    1.04    1.43    32.10626    10.89431    -9.46256

  Z AO/shell   Hii/eV     exponent
  1     Wed Apr 25 08:07:45 CEST 2018   EN: 2.200 GM2: 0.406  GM3: 0.0800  RAES: 1.40
     1s    -10.707211    1.230000
  6     Wed Apr 25 08:07:45 CEST 2018   EN: 2.550 GM2: 0.538  GM3: 0.1500  RAES: 3.00
     2s    -13.970922    2.096432
     2p    -10.063292    1.800000
  7     Wed Apr 25 08:07:45 CEST 2018   EN: 3.040 GM2: 0.461  GM3:-0.0640  RAES: 1.90
     2s    -16.686243    2.339881
     2p    -12.523956    2.014332
  8     Wed Apr 25 08:07:45 CEST 2018   EN: 3.440 GM2: 0.452  GM3:-0.0517  RAES: 1.80
     2s    -20.229985    2.439742
     2p    -15.503117    2.137023
 no old-style atom pair restraining (fixing) potential

molecular fragmentation (1/2 indicates fragments):
111111111111111111111111111111111111111111111111111111111111111111111111
222222222222222222222222222222222222222222222222222222222222222222222222
222222222222222222222222222222222222222222222222222222222222222222222222
222222222222222222222222222222222222222222222222222222222212222222222
# atoms in fragment 1/2:    73   212
 fragment masses (1/2) :      542.59     1383.67
CMA distance (Bohr)    :   4.745
constraining FC (au)   :  0.0500
           ------------------------------------------------- 
          |        Self-Consistent Charge Iterations        |
           ------------------------------------------------- 

 Ncao       : 690
 Nao        : 690
 Nshell     : 420
 Nel        : 764
 T(el)      :   500.0
 intcut     :    35.0
 scfconv/Eh :  0.100E-06
   qconv/e  :  0.100E-04
 intneglect :  0.100E-08
 broydamp   :      0.400
 iter      E             dE          RMSdq      gap      omega  full diag
   1   -439.0223515 -0.439022E+03  0.478E+00    2.76       0.0  T
   2   -439.9366595 -0.914308E+00  0.232E+00    1.71       1.0  T
   3   -439.9914112 -0.547517E-01  0.122E+00    1.66       1.0  T
   4   -440.0765572 -0.851460E-01  0.296E-01    0.88       1.0  T
   5   -440.0805938 -0.403669E-02  0.139E-01    0.94       1.0  T
   6   -440.0822663 -0.167247E-02  0.550E-02    0.89       1.0  T
   7   -440.0824621 -0.195829E-03  0.293E-02    0.88       1.0  T
   8   -440.0825021 -0.399645E-04  0.144E-02    0.88       1.0  T
   9   -440.0825192 -0.170809E-04  0.576E-03    0.88       1.0  T
  10   -440.0825213 -0.206282E-05  0.269E-03    0.88       2.2  T
  11   -440.0825216 -0.376886E-06  0.118E-03    0.87       5.0  T
  12   -440.0825217 -0.907487E-07  0.510E-04    0.87      11.6  T
  13   -440.0825217 -0.238151E-07  0.229E-04    0.87      25.9  T
  14   -440.0825217 -0.203551E-08  0.108E-04    0.87      54.9  T
  15   -440.0825217 -0.851344E-09  0.418E-05    0.87     141.6  T
  16   -440.0825217 -0.100158E-09  0.196E-05    0.87     301.9  T
speedup 11.98
cpu  time for SCC   10.99 s
wall time for SCC    0.92 s

   *** convergence criteria satisfied after 16 iterations ***

          eigenvalues
 #    :         370        371        372        373        374        375        376        377
 occ. :        2.000      2.000      2.000      2.000      2.000      2.000      2.000      2.000
 eps  :       -10.747    -10.713    -10.674    -10.652    -10.441    -10.261    -10.203    -10.007
 #    :         378        379        380        381        382        383        384        385
 occ. :        2.000      2.000      2.000      2.000      2.000      0.000      0.000      0.000
 eps  :        -9.974     -9.813     -9.773     -9.715     -9.498     -8.626     -7.982     -7.878
 #    :         386        387        388        389        390        391        392        393
 occ. :        0.000      0.000      0.000      0.000      0.000      0.000      0.000      0.000
 eps  :        -7.829     -7.750     -7.634     -6.645     -6.574     -6.417     -6.269     -6.226


   #   Z            q   n(s)   n(p)   n(d)      C6AA      α(0)
   1   7 N     -0.183  1.252  3.931  0.000    24.959     7.420
   2   6 C     -0.024  1.083  2.940  0.000    21.016     6.531
   3   6 C      0.262  1.037  2.702  0.000    22.592     7.783
   4   8 O     -0.469  1.722  4.748  0.000    23.111     6.445
   5   6 C     -0.069  1.054  3.015  0.000    21.822     6.651
   6   6 C     -0.100  1.067  3.033  0.000    22.416     6.742
   7   6 C      0.367  1.028  2.605  0.000    20.781     7.460
   8   8 O     -0.632  1.764  4.867  0.000    26.909     6.955
   9   8 O     -0.672  1.794  4.878  0.000    27.959     7.089
  10   1 H      0.280  0.720  0.000  0.000     0.776     1.380
  11   1 H      0.320  0.680  0.000  0.000     0.658     1.271
  12   1 H      0.292  0.708  0.000  0.000     0.738     1.346
  13   1 H      0.109  0.891  0.000  0.000     1.702     2.040
  14   1 H      0.071  0.929  0.000  0.000     2.074     2.252
  15   1 H      0.075  0.925  0.000  0.000     2.028     2.227
  16   1 H      0.020  0.980  0.000  0.000     2.727     2.582
  17   1 H      0.026  0.974  0.000  0.000     2.639     2.540
  18   7 N     -0.132  1.232  3.899  0.000    23.854     7.254
  19   6 C      0.006  1.068  2.926  0.000    20.477     6.442
  20   6 C      0.268  1.048  2.684  0.000    22.468     7.762
  21   8 O     -0.500  1.759  4.741  0.000    23.786     6.539
  22   1 H      0.228  0.772  0.000  0.000     0.974     1.546
  23   1 H      0.099  0.901  0.000  0.000     1.791     2.093
  24   6 C     -0.082  1.053  3.029  0.000    22.062     6.685
  25   6 C     -0.003  1.076  2.928  0.000    28.098     8.695
  26   6 C     -0.059  1.091  2.967  0.000    29.455     8.901
  27   6 C     -0.047  1.081  2.965  0.000    29.155     8.855
  28   6 C     -0.065  1.075  2.990  0.000    29.612     8.924
  29   6 C     -0.094  1.079  3.015  0.000    30.353     9.035
  30   6 C      0.133  1.046  2.822  0.000    25.091     8.210
  31   8 O     -0.418  1.713  4.705  0.000    21.198     6.215
  32   1 H      0.070  0.930  0.000  0.000     2.084     2.257
  33   1 H      0.058  0.942  0.000  0.000     2.220     2.330
  34   1 H      0.069  0.931  0.000  0.000     2.095     2.263
  35   1 H      0.049  0.951  0.000  0.000     2.333     2.389
  36   1 H      0.069  0.931  0.000  0.000     2.091     2.261
  37   1 H      0.079  0.921  0.000  0.000     1.992     2.207
  38   1 H      0.333  0.667  0.000  0.000     0.628     1.245
  39   7 N     -0.183  1.256  3.927  0.000    24.961     7.420
  40   6 C      0.026  1.060  2.915  0.000    20.151     6.393
  41   6 C      0.256  1.054  2.691  0.000    22.700     7.802
  42   8 O     -0.488  1.735  4.753  0.000    23.519     6.502
  43   6 C     -0.067  1.049  3.018  0.000    21.766     6.639
  44   6 C      0.014  1.078  2.909  0.000    27.699     8.633
  45   6 C     -0.039  1.081  2.957  0.000    28.962     8.825
  46   6 C     -0.045  1.082  2.963  0.000    29.113     8.849
  47   6 C     -0.038  1.078  2.960  0.000    28.945     8.823
  48   6 C     -0.040  1.079  2.961  0.000    28.991     8.830
  49   6 C     -0.040  1.078  2.962  0.000    28.994     8.830
  50   1 H      0.246  0.754  0.000  0.000     0.901     1.487
  51   1 H      0.079  0.921  0.000  0.000     1.989     2.205
  52   1 H      0.053  0.947  0.000  0.000     2.285     2.364
  53   1 H      0.049  0.951  0.000  0.000     2.338     2.391
  54   1 H      0.050  0.950  0.000  0.000     2.318     2.381
  55   1 H      0.034  0.966  0.000  0.000     2.532     2.488
  56   1 H      0.058  0.942  0.000  0.000     2.225     2.332
  57   1 H      0.031  0.969  0.000  0.000     2.575     2.509
  58   1 H      0.047  0.953  0.000  0.000     2.356     2.400
  59   7 N     -0.164  1.229  3.935  0.000    24.543     7.358
  60   6 C      0.029  1.047  2.925  0.000    20.084     6.379
  61   6 C      0.193  1.091  2.716  0.000    23.879     8.003
  62   8 O     -0.363  1.762  4.601  0.000    20.952     6.137
  63   1 H      0.225  0.775  0.000  0.000     0.989     1.558
  64   1 H      0.098  0.902  0.000  0.000     1.805     2.101
  65   6 C      0.124  1.035  2.841  0.000    18.619     6.154
  66   8 O     -0.480  1.717  4.763  0.000    22.464     6.398
  67   6 C     -0.153  1.041  3.111  0.000    23.498     6.910
  68   1 H      0.055  0.945  0.000  0.000     2.259     2.350
  69   1 H      0.342  0.658  0.000  0.000     0.608     1.224
  70   1 H      0.065  0.935  0.000  0.000     2.147     2.291
  71   1 H      0.085  0.915  0.000  0.000     1.925     2.170
  72   1 H      0.055  0.945  0.000  0.000     2.257     2.349
  73   8 O     -0.612  1.738  4.874  0.000    25.485     6.813
  74   1 H      0.305  0.695  0.000  0.000     0.706     1.320
  75   1 H      0.322  0.678  0.000  0.000     0.657     1.273
  76   8 O     -0.631  1.751  4.880  0.000    25.948     6.875
  77   1 H      0.318  0.682  0.000  0.000     0.670     1.286
  78   1 H      0.310  0.690  0.000  0.000     0.691     1.306
  79   8 O     -0.602  1.733  4.869  0.000    25.238     6.780
  80   1 H      0.316  0.684  0.000  0.000     0.675     1.290
  81   1 H      0.304  0.696  0.000  0.000     0.708     1.322
  82   8 O     -0.599  1.736  4.863  0.000    25.162     6.770
  83   1 H      0.334  0.666  0.000  0.000     0.628     1.244
  84   1 H      0.352  0.648  0.000  0.000     0.582     1.199
  85   8 O     -0.644  1.776  4.868  0.000    26.276     6.918
  86   1 H      0.322  0.678  0.000  0.000     0.657     1.274
  87   1 H      0.322  0.678  0.000  0.000     0.658     1.274
  88   8 O     -0.624  1.769  4.855  0.000    25.756     6.850
  89   1 H      0.317  0.683  0.000  0.000     0.673     1.289
  90   1 H      0.304  0.696  0.000  0.000     0.709     1.322
  91   8 O     -0.607  1.740  4.867  0.000    25.357     6.796
  92   1 H      0.334  0.666  0.000  0.000     0.628     1.244
  93   1 H      0.291  0.709  0.000  0.000     0.749     1.359
  94   8 O     -0.643  1.778  4.866  0.000    26.250     6.915
  95   1 H      0.323  0.677  0.000  0.000     0.655     1.271
  96   1 H      0.320  0.680  0.000  0.000     0.663     1.279
  97   8 O     -0.648  1.769  4.878  0.000    26.353     6.929
  98   1 H      0.326  0.674  0.000  0.000     0.648     1.265
  99   1 H      0.324  0.676  0.000  0.000     0.652     1.269
 100   7 N     -0.391  1.321  4.070  0.000    30.126     8.152
 101   6 C      0.041  1.060  2.899  0.000    19.902     6.355
 102   6 C      0.197  1.089  2.714  0.000    23.794     7.989
 103   8 O     -0.386  1.771  4.615  0.000    21.406     6.203
 104   6 C     -0.061  1.050  3.011  0.000    21.661     6.623
 105   6 C      0.014  1.077  2.909  0.000    27.693     8.632
 106   6 C     -0.041  1.077  2.964  0.000    29.010     8.833
 107   6 C     -0.043  1.084  2.959  0.000    29.060     8.840
 108   6 C     -0.033  1.078  2.954  0.000    28.811     8.803
 109   6 C     -0.033  1.080  2.952  0.000    28.814     8.803
 110   6 C     -0.034  1.078  2.956  0.000    28.843     8.807
 111   1 H      0.157  0.843  0.000  0.000     1.355     1.824
 112   1 H      0.074  0.926  0.000  0.000     2.046     2.237
 113   1 H      0.039  0.961  0.000  0.000     2.467     2.456
 114   1 H      0.061  0.939  0.000  0.000     2.193     2.316
 115   1 H      0.026  0.974  0.000  0.000     2.638     2.540
 116   1 H      0.056  0.944  0.000  0.000     2.252     2.347
 117   1 H      0.024  0.976  0.000  0.000     2.675     2.558
 118   1 H      0.045  0.955  0.000  0.000     2.379     2.412
 119   1 H      0.030  0.970  0.000  0.000     2.590     2.517
 120   7 N     -0.398  1.326  4.071  0.000    30.309     8.176
 121   6 C      0.026  1.066  2.908  0.000    20.134     6.390
 122   6 C      0.275  1.042  2.683  0.000    22.355     7.742
 123   8 O     -0.502  1.745  4.757  0.000    23.822     6.544
 124   6 C     -0.055  1.047  3.008  0.000    21.547     6.607
 125   6 C     -0.103  1.059  3.044  0.000    22.450     6.743
 126   6 C      0.295  1.029  2.677  0.000    22.003     7.681
 127   8 O     -0.505  1.737  4.768  0.000    23.903     6.555
 128   7 N     -0.282  1.266  4.016  0.000    27.277     7.757
 129   1 H      0.153  0.847  0.000  0.000     1.380     1.840
 130   1 H      0.037  0.963  0.000  0.000     2.487     2.466
 131   1 H      0.032  0.968  0.000  0.000     2.558     2.501
 132   1 H      0.052  0.948  0.000  0.000     2.298     2.371
 133   1 H      0.069  0.931  0.000  0.000     2.097     2.265
 134   1 H      0.055  0.945  0.000  0.000     2.255     2.348
 135   1 H      0.231  0.769  0.000  0.000     0.961     1.535
 136   1 H      0.213  0.787  0.000  0.000     1.041     1.598
 137   7 N     -0.182  1.252  3.930  0.000    24.945     7.418
 138   6 C      0.016  1.065  2.920  0.000    20.316     6.418
 139   6 C      0.264  1.046  2.690  0.000    22.549     7.777
 140   8 O     -0.481  1.734  4.747  0.000    23.367     6.481
 141   6 C     -0.018  1.064  2.954  0.000    20.854     6.495
 142   6 C     -0.064  1.054  3.010  0.000    21.717     6.634
 143   6 C     -0.113  1.041  3.072  0.000    22.715     6.796
 144   6 C     -0.104  1.037  3.066  0.000    22.550     6.773
 145   1 H      0.233  0.767  0.000  0.000     0.952     1.528
 146   1 H      0.068  0.932  0.000  0.000     2.111     2.272
 147   1 H      0.046  0.954  0.000  0.000     2.376     2.411
 148   1 H      0.041  0.959  0.000  0.000     2.439     2.442
 149   1 H      0.033  0.967  0.000  0.000     2.544     2.494
 150   1 H      0.043  0.957  0.000  0.000     2.411     2.428
 151   1 H      0.046  0.954  0.000  0.000     2.366     2.406
 152   1 H      0.046  0.954  0.000  0.000     2.364     2.405
 153   1 H      0.035  0.965  0.000  0.000     2.520     2.483
 154   1 H      0.033  0.967  0.000  0.000     2.545     2.495
 155   1 H      0.034  0.966  0.000  0.000     2.536     2.490
 156   7 N     -0.150  1.239  3.911  0.000    24.256     7.315
 157   6 C     -0.003  1.070  2.933  0.000    20.628     6.467
 158   6 C      0.277  1.030  2.693  0.000    22.310     7.736
 159   8 O     -0.492  1.754  4.738  0.000    23.608     6.514
 160   6 C     -0.093  1.062  3.031  0.000    22.262     6.717
 161   6 C     -0.105  1.063  3.042  0.000    22.508     6.755
 162   6 C     -0.046  1.061  2.985  0.000    21.484     6.616
 163   7 N     -0.137  1.214  3.923  0.000    23.965     7.271
 164   6 C      0.220  1.023  2.757  0.000    23.359     7.913
 165   7 N     -0.252  1.255  3.997  0.000    26.548     7.652
 166   7 N     -0.249  1.234  4.015  0.000    26.479     7.642
 167   1 H      0.213  0.787  0.000  0.000     1.042     1.599
 168   1 H      0.094  0.906  0.000  0.000     1.837     2.120
 169   1 H      0.079  0.921  0.000  0.000     1.988     2.205
 170   1 H      0.074  0.926  0.000  0.000     2.042     2.234
 171   1 H      0.080  0.920  0.000  0.000     1.981     2.201
 172   1 H      0.092  0.908  0.000  0.000     1.858     2.132
 173   1 H      0.087  0.913  0.000  0.000     1.905     2.159
 174   1 H      0.097  0.903  0.000  0.000     1.811     2.104
 175   1 H      0.244  0.756  0.000  0.000     0.908     1.493
 176   1 H      0.245  0.755  0.000  0.000     0.904     1.490
 177   1 H      0.238  0.762  0.000  0.000     0.933     1.513
 178   1 H      0.260  0.740  0.000  0.000     0.845     1.440
 179   1 H      0.244  0.756  0.000  0.000     0.908     1.493
 180   7 N     -0.166  1.241  3.925  0.000    24.600     7.366
 181   6 C     -0.047  1.052  2.996  0.000    21.471     6.606
 182   6 C      0.272  1.038  2.690  0.000    22.396     7.749
 183   8 O     -0.492  1.751  4.741  0.000    23.604     6.514
 184   1 H      0.245  0.755  0.000  0.000     0.903     1.488
 185   1 H      0.101  0.899  0.000  0.000     1.775     2.084
 186   1 H      0.107  0.893  0.000  0.000     1.726     2.055
 187   7 N     -0.183  1.257  3.926  0.000    24.963     7.420
 188   6 C      0.023  1.065  2.912  0.000    20.193     6.400
 189   6 C      0.201  1.088  2.710  0.000    23.717     7.975
 190   8 O     -0.370  1.769  4.601  0.000    21.096     6.158
 191   1 H      0.235  0.765  0.000  0.000     0.944     1.522
 192   1 H      0.084  0.916  0.000  0.000     1.937     2.176
 193   6 C     -0.091  1.063  3.028  0.000    22.232     6.712
 194   6 C     -0.085  1.050  3.034  0.000    22.118     6.696
 195   6 C     -0.030  1.057  2.973  0.000    21.185     6.568
 196   7 N     -0.130  1.206  3.924  0.000    23.831     7.250
 197   6 C      0.232  1.018  2.750  0.000    23.128     7.874
 198   7 N     -0.244  1.228  4.016  0.000    26.364     7.626
 199   7 N     -0.249  1.229  4.020  0.000    26.494     7.645
 200   1 H      0.092  0.908  0.000  0.000     1.864     2.135
 201   1 H      0.087  0.913  0.000  0.000     1.906     2.159
 202   1 H      0.074  0.926  0.000  0.000     2.044     2.236
 203   1 H      0.065  0.935  0.000  0.000     2.144     2.290
 204   1 H      0.097  0.903  0.000  0.000     1.813     2.106
 205   1 H      0.084  0.916  0.000  0.000     1.939     2.178
 206   1 H      0.217  0.783  0.000  0.000     1.021     1.583
 207   1 H      0.247  0.753  0.000  0.000     0.895     1.482
 208   1 H      0.250  0.750  0.000  0.000     0.882     1.471
 209   1 H      0.228  0.772  0.000  0.000     0.975     1.547
 210   1 H      0.243  0.757  0.000  0.000     0.910     1.494
 211   7 N     -0.393  1.310  4.084  0.000    30.190     8.160
 212   6 C      0.057  1.046  2.897  0.000    19.648     6.315
 213   6 C      0.204  1.090  2.706  0.000    23.658     7.966
 214   8 O     -0.412  1.774  4.637  0.000    21.918     6.277
 215   6 C     -0.075  1.067  3.008  0.000    21.928     6.667
 216   6 C      0.004  1.090  2.906  0.000    27.924     8.667
 217   6 C     -0.036  1.079  2.957  0.000    28.891     8.816
 218   6 C     -0.050  1.087  2.963  0.000    29.247     8.869
 219   6 C     -0.033  1.077  2.956  0.000    28.826     8.804
 220   6 C     -0.043  1.085  2.958  0.000    29.076     8.842
 221   6 C     -0.034  1.079  2.955  0.000    28.847     8.808
 222   1 H      0.192  0.808  0.000  0.000     1.146     1.677
 223   1 H      0.034  0.966  0.000  0.000     2.537     2.491
 224   1 H      0.065  0.935  0.000  0.000     2.136     2.285
 225   1 H      0.072  0.928  0.000  0.000     2.068     2.249
 226   1 H      0.020  0.980  0.000  0.000     2.738     2.587
 227   1 H      0.051  0.949  0.000  0.000     2.303     2.373
 228   1 H      0.030  0.970  0.000  0.000     2.587     2.515
 229   1 H      0.049  0.951  0.000  0.000     2.337     2.391
 230   1 H      0.032  0.968  0.000  0.000     2.561     2.503
 231   7 N     -0.388  1.308  4.080  0.000    30.047     8.141
 232   6 C      0.050  1.047  2.903  0.000    19.765     6.334
 233   6 C      0.200  1.092  2.708  0.000    23.743     7.980
 234   8 O     -0.377  1.752  4.625  0.000    21.236     6.178
 235   6 C     -0.071  1.065  3.006  0.000    21.859     6.656
 236   6 C      0.001  1.088  2.911  0.000    28.001     8.679
 237   6 C     -0.035  1.078  2.957  0.000    28.862     8.812
 238   6 C     -0.043  1.086  2.956  0.000    29.061     8.841
 239   6 C     -0.037  1.077  2.959  0.000    28.911     8.817
 240   6 C     -0.040  1.087  2.953  0.000    28.991     8.830
 241   6 C     -0.037  1.079  2.958  0.000    28.923     8.820
 242   1 H      0.169  0.831  0.000  0.000     1.279     1.772
 243   1 H      0.042  0.958  0.000  0.000     2.420     2.433
 244   1 H      0.044  0.956  0.000  0.000     2.400     2.423
 245   1 H      0.054  0.946  0.000  0.000     2.273     2.358
 246   1 H      0.004  0.996  0.000  0.000     2.988     2.703
 247   1 H      0.036  0.964  0.000  0.000     2.498     2.472
 248   1 H      0.041  0.959  0.000  0.000     2.438     2.442
 249   1 H      0.072  0.928  0.000  0.000     2.065     2.247
 250   1 H      0.065  0.935  0.000  0.000     2.145     2.290
 251   7 N     -0.410  1.332  4.078  0.000    30.660     8.224
 252   6 C      0.034  1.066  2.901  0.000    20.034     6.378
 253   6 C      0.196  1.102  2.702  0.000    23.817     7.992
 254   8 O     -0.388  1.766  4.622  0.000    21.445     6.209
 255   1 H      0.186  0.814  0.000  0.000     1.179     1.701
 256   1 H      0.053  0.947  0.000  0.000     2.288     2.365
 257   6 C     -0.077  1.060  3.018  0.000    21.979     6.675
 258   6 C     -0.087  1.057  3.030  0.000    22.162     6.703
 259   6 C     -0.026  1.056  2.970  0.000    21.141     6.563
 260   7 N     -0.139  1.226  3.913  0.000    24.012     7.278
 261   6 C      0.223  1.025  2.752  0.000    23.302     7.903
 262   7 N     -0.232  1.242  3.989  0.000    26.075     7.584
 263   7 N     -0.253  1.243  4.010  0.000    26.570     7.656
 264   1 H      0.065  0.935  0.000  0.000     2.143     2.289
 265   1 H      0.069  0.931  0.000  0.000     2.100     2.266
 266   1 H      0.092  0.908  0.000  0.000     1.856     2.130
 267   1 H      0.065  0.935  0.000  0.000     2.140     2.287
 268   1 H      0.070  0.930  0.000  0.000     2.090     2.261
 269   1 H      0.099  0.901  0.000  0.000     1.796     2.096
 270   1 H      0.237  0.763  0.000  0.000     0.938     1.517
 271   1 H      0.237  0.763  0.000  0.000     0.934     1.514
 272   1 H      0.241  0.759  0.000  0.000     0.917     1.500
 273   1 H      0.249  0.751  0.000  0.000     0.889     1.477
 274   1 H      0.248  0.752  0.000  0.000     0.891     1.479
 275   1 H      0.086  0.914  0.000  0.000     1.917     2.165
 276   1 H      0.177  0.823  0.000  0.000     1.228     1.736
 277   1 H      0.080  0.920  0.000  0.000     1.982     2.202
 278   1 H      0.177  0.823  0.000  0.000     1.232     1.738
 279   1 H      0.081  0.919  0.000  0.000     1.964     2.192
 280   1 H      0.178  0.822  0.000  0.000     1.226     1.734
 281   1 H      0.073  0.927  0.000  0.000     2.047     2.237
 282   1 H      0.181  0.819  0.000  0.000     1.209     1.722
 283   1 H      0.079  0.921  0.000  0.000     1.986     2.204
 284   1 H      0.170  0.830  0.000  0.000     1.274     1.768
 285   1 H      0.074  0.926  0.000  0.000     2.046     2.237

 Mol. C6AA /au·bohr⁶  :     733927.809472
 Mol. C8AA /au·bohr⁸  :   16390595.360616
 Mol. α(0) /au        :       1299.868583

 
 Wiberg/Mayer (AO) data. WBOs > 0.1 written file <wbo>
 largest (>0.05) Wiberg bond orders for each atom
           total WBO             WBO to atom ...
     1  N   3.624    C    2 0.966    H   10 0.902    H   12 0.877    H   11 0.774
     2  C   3.946    C    5 0.983    N    1 0.966    H   13 0.956    C    3 0.932    O    4 0.055
     3  C   3.957    O    4 1.581    N   18 1.368    C    2 0.932
     4  O   1.976    C    3 1.581    N   18 0.201    C    2 0.055
     5  C   3.985    C    6 1.009    C    2 0.983    H   15 0.969    H   14 0.962
     6  C   3.989    C    5 1.009    H   17 0.975    H   16 0.969    C    7 0.902    O    8 0.058    O    9 0.057
     7  C   3.927    O    8 1.505    O    9 1.497    C    6 0.902
     8  O   1.799    C    7 1.505    O    9 0.215    C    6 0.058
     9  O   1.789    C    7 1.497    O    8 0.215    C    6 0.057
    10  H   0.921    N    1 0.902
    11  H   0.898    N    1 0.774    O   82 0.115
    12  H   0.915    N    1 0.877
    13  H   0.988    C    2 0.956
    14  H   0.994    C    5 0.962
    15  H   0.994    C    5 0.969
    16  H   1.000    C    6 0.969
    17  H   0.999    C    6 0.975
    18  N   3.534    C    3 1.368    C   19 0.981    H   22 0.896    O    4 0.201
    19  C   3.956    N   18 0.981    C   24 0.952    H   23 0.946    C   20 0.934    O   21 0.053
    20  C   3.941    O   21 1.632    N   39 1.302    C   19 0.934
    21  O   1.951    C   20 1.632    N   39 0.201    C   19 0.053
    22  H   0.948    N   18 0.896
    23  H   0.990    C   19 0.946
    24  C   3.982    C   25 1.008    H   33 0.970    H   32 0.962    C   19 0.952
    25  C   3.986    C   27 1.424    C   26 1.388    C   24 1.008    C   30 0.095
    26  C   3.987    C   28 1.462    C   25 1.388    H   34 0.953    C   29 0.108
    27  C   3.989    C   29 1.435    C   25 1.424    H   35 0.966    C   28 0.103
    28  C   3.987    C   26 1.462    C   30 1.369    H   36 0.961    C   27 0.103
    29  C   3.982    C   27 1.435    C   30 1.375    H   37 0.956    C   26 0.108    O   31 0.059
    30  C   3.944    C   29 1.375    C   28 1.369    O   31 1.063    C   25 0.095
    31  O   2.091    C   30 1.063    H   38 0.859    C   29 0.059
    32  H   0.994    C   24 0.962
    33  H   0.996    C   24 0.970
    34  H   0.995    C   26 0.953
    35  H   0.998    C   27 0.966
    36  H   0.995    C   28 0.961
    37  H   0.993    C   29 0.956
    38  H   0.889    O   31 0.859
    39  N   3.465    C   20 1.302    C   40 0.991    H   50 0.874    O   21 0.201
    40  C   3.974    N   39 0.991    C   43 0.953    H   51 0.952    C   41 0.947
    41  C   3.944    O   42 1.591    N   59 1.311    C   40 0.947
    42  O   1.953    C   41 1.591    N   59 0.187
    43  C   3.989    C   44 1.012    H   52 0.965    H   53 0.964    C   40 0.953
    44  C   3.988    C   46 1.427    C   45 1.395    C   43 1.012    C   49 0.108
    45  C   3.990    C   47 1.461    C   44 1.395    H   54 0.966    C   48 0.110
    46  C   3.990    C   44 1.427    C   48 1.426    H   55 0.969    C   47 0.112
    47  C   3.990    C   45 1.461    C   49 1.417    H   56 0.963    C   46 0.112
    48  C   3.992    C   49 1.453    C   46 1.426    H   57 0.970    C   45 0.110
    49  C   3.990    C   48 1.453    C   47 1.417    H   58 0.966    C   44 0.108
    50  H   0.940    N   39 0.874
    51  H   0.993    C   40 0.952
    52  H   0.997    C   43 0.965
    53  H   0.997    C   43 0.964
    54  H   0.997    C   45 0.966
    55  H   0.999    C   46 0.969
    56  H   0.996    C   47 0.963
    57  H   0.999    C   48 0.970
    58  H   0.997    C   49 0.966
    59  N   3.481    C   41 1.311    C   60 0.994    H   63 0.896    O   42 0.187
    60  C   3.968    N   59 0.994    C   61 0.984    H   64 0.939    C   65 0.931    O   62 0.056
    61  C   3.899    O   62 1.879    C   60 0.984    H  275 0.956
    62  O   2.044    C   61 1.879    C   60 0.056
    63  H   0.949    N   59 0.896
    64  H   0.990    C   60 0.939
    65  C   3.955    C   67 1.005    O   66 0.997    H   68 0.948    C   60 0.931
    66  O   1.944    C   65 0.997    H   69 0.864
    67  C   3.987    C   65 1.005    H   70 0.980    H   72 0.980    H   71 0.967
    68  H   0.997    C   65 0.948
    69  H   0.883    O   66 0.864
    70  H   0.996    C   67 0.980
    71  H   0.993    C   67 0.967
    72  H   0.997    C   67 0.980
    73  O   1.832    H   74 0.904    H   75 0.894
    74  H   0.907    O   73 0.904
    75  H   0.896    O   73 0.894
    76  O   1.807    H   77 0.891    H   78 0.886
    77  H   0.899    O   76 0.891
    78  H   0.904    O   76 0.886
    79  O   1.843    H   81 0.900    H   80 0.895
    80  H   0.900    O   79 0.895
    81  H   0.907    O   79 0.900
    82  O   1.928    H   83 0.885    H   84 0.873    H   11 0.115
    83  H   0.889    O   82 0.885
    84  H   0.876    O   82 0.873
    85  O   1.793    H   86 0.896    H   87 0.896
    86  H   0.896    O   85 0.896
    87  H   0.896    O   85 0.896
    88  O   1.806    H   90 0.906    H   89 0.894
    89  H   0.900    O   88 0.894
    90  H   0.907    O   88 0.906
    91  O   1.839    H   93 0.912    H   92 0.886
    92  H   0.889    O   91 0.886
    93  H   0.915    O   91 0.912
    94  O   1.794    H   96 0.897    H   95 0.893
    95  H   0.896    O   94 0.893
    96  H   0.897    O   94 0.897
    97  O   1.794    H   99 0.895    H   98 0.893
    98  H   0.894    O   97 0.893
    99  H   0.895    O   97 0.895
   100  N   2.994    C  101 1.015    H  111 0.955    H  276 0.950
   101  C   3.984    N  100 1.015    C  102 0.992    H  112 0.949    C  104 0.933    O  103 0.058
   102  C   3.896    O  103 1.877    C  101 0.992    H  277 0.955
   103  O   2.026    C  102 1.877    C  101 0.058
   104  C   3.992    C  105 1.015    H  113 0.968    H  114 0.964    C  101 0.933
   105  C   3.989    C  107 1.422    C  106 1.391    C  104 1.015    C  110 0.108
   106  C   3.992    C  108 1.460    C  105 1.391    H  115 0.968    C  109 0.108
   107  C   3.988    C  109 1.429    C  105 1.422    H  116 0.967    C  108 0.113
   108  C   3.992    C  106 1.460    C  110 1.421    H  117 0.971    C  107 0.113
   109  C   3.991    C  110 1.457    C  107 1.429    H  118 0.969    C  106 0.108
   110  C   3.990    C  109 1.457    C  108 1.421    H  119 0.971    C  105 0.108
   111  H   0.975    N  100 0.955
   112  H   0.994    C  101 0.949
   113  H   0.998    C  104 0.968
   114  H   0.996    C  104 0.964
   115  H   0.999    C  106 0.968
   116  H   0.997    C  107 0.967
   117  H   0.999    C  108 0.971
   118  H   0.998    C  109 0.969
   119  H   0.999    C  110 0.971
   120  N   2.990    C  121 1.006    H  129 0.961    H  278 0.958
   121  C   3.980    N  120 1.006    C  124 0.981    H  130 0.960    C  122 0.927    O  123 0.051
   122  C   3.948    O  123 1.630    N  137 1.321    C  121 0.927
   123  O   1.938    C  122 1.630    N  137 0.197    C  121 0.051
   124  C   3.995    C  125 0.999    C  121 0.981    H  131 0.973    H  132 0.973
   125  C   3.995    C  124 0.999    H  134 0.972    H  133 0.960    C  126 0.952    O  127 0.058
   126  C   3.947    O  127 1.638    N  128 1.329    C  125 0.952
   127  O   1.939    C  126 1.638    N  128 0.200    C  125 0.058
   128  N   3.407    C  126 1.329    H  136 0.928    H  135 0.902    O  127 0.200
   129  H   0.976    N  120 0.961
   130  H   0.999    C  121 0.960
   131  H   0.998    C  124 0.973
   132  H   0.997    C  124 0.973
   133  H   0.995    C  125 0.960
   134  H   0.997    C  125 0.972
   135  H   0.947    N  128 0.902
   136  H   0.954    N  128 0.928
   137  N   3.469    C  122 1.321    C  138 0.973    H  145 0.880    O  123 0.197
   138  C   3.965    N  137 0.973    C  141 0.968    H  146 0.956    C  139 0.936
   139  C   3.956    O  140 1.593    N  156 1.339    C  138 0.936
   140  O   1.960    C  139 1.593    N  156 0.198
   141  C   3.992    C  143 1.001    C  142 0.994    C  138 0.968    H  147 0.964
   142  C   3.994    C  144 1.015    C  141 0.994    H  148 0.978    H  149 0.976
   143  C   3.993    C  141 1.001    H  152 0.986    H  151 0.985    H  150 0.977
   144  C   3.995    C  142 1.015    H  154 0.988    H  153 0.987    H  155 0.983
   145  H   0.946    N  137 0.880
   146  H   0.995    C  138 0.956
   147  H   0.998    C  141 0.964
   148  H   0.998    C  142 0.978
   149  H   0.999    C  142 0.976
   150  H   0.997    C  143 0.977
   151  H   0.998    C  143 0.985
   152  H   0.998    C  143 0.986
   153  H   0.998    C  144 0.987
   154  H   0.999    C  144 0.988
   155  H   0.999    C  144 0.983
   156  N   3.497    C  139 1.339    C  157 0.964    H  167 0.922    O  140 0.198
   157  C   3.948    C  160 0.971    N  156 0.964    H  168 0.951    C  158 0.935
   158  C   3.952    O  159 1.636    N  180 1.312    C  157 0.935
   159  O   1.963    C  158 1.636    N  180 0.206
   160  C   3.979    C  161 1.005    H  170 0.972    C  157 0.971    H  169 0.970
   161  C   3.982    C  160 1.005    C  162 1.001    H  171 0.974    H  172 0.959
   162  C   3.951    C  161 1.001    N  163 0.985    H  174 0.963    H  173 0.953
   163  N   3.472    C  164 1.320    C  162 0.985    H  175 0.902    N  166 0.109    N  165 0.097
   164  C   3.976    N  166 1.324    N  163 1.320    N  165 1.299
   165  N   3.375    C  164 1.299    H  177 0.923    H  176 0.914    N  166 0.100    N  163 0.097
   166  N   3.407    C  164 1.324    H  179 0.921    H  178 0.912    N  163 0.109    N  165 0.100
   167  H   0.954    N  156 0.922
   168  H   0.991    C  157 0.951
   169  H   0.993    C  160 0.970
   170  H   0.994    C  160 0.972
   171  H   0.994    C  161 0.974
   172  H   0.991    C  161 0.959
   173  H   0.992    C  162 0.953
   174  H   0.990    C  162 0.963
   175  H   0.941    N  163 0.902
   176  H   0.940    N  165 0.914
   177  H   0.943    N  165 0.923
   178  H   0.932    N  166 0.912
   179  H   0.940    N  166 0.921
   180  N   3.477    C  158 1.312    C  181 0.993    H  184 0.882    O  159 0.206
   181  C   3.964    N  180 0.993    C  182 0.959    H  185 0.959    H  186 0.941
   182  C   3.947    O  183 1.626    N  187 1.294    C  181 0.959
   183  O   1.971    C  182 1.626    N  187 0.199
   184  H   0.940    N  180 0.882
   185  H   0.990    C  181 0.959
   186  H   0.988    C  181 0.941
   187  N   3.461    C  182 1.294    C  188 0.974    H  191 0.892    O  183 0.199
   188  C   3.967    C  189 0.979    N  187 0.974    C  193 0.966    H  192 0.947    O  190 0.054
   189  C   3.895    O  190 1.893    C  188 0.979    H  279 0.954
   190  O   2.034    C  189 1.893    C  188 0.054
   191  H   0.945    N  187 0.892
   192  H   0.993    C  188 0.947
   193  C   3.980    C  194 1.005    H  201 0.970    C  188 0.966    H  200 0.959
   194  C   3.989    C  193 1.005    C  195 0.994    H  202 0.973    H  203 0.971
   195  C   3.949    C  194 0.994    N  196 0.983    H  205 0.961    H  204 0.959
   196  N   3.481    C  197 1.323    C  195 0.983    H  206 0.913    N  198 0.105    N  199 0.099
   197  C   3.977    N  198 1.328    N  196 1.323    N  199 1.293
   198  N   3.403    C  197 1.328    H  208 0.917    H  207 0.909    N  196 0.105    N  199 0.098
   199  N   3.380    C  197 1.293    H  209 0.926    H  210 0.921    N  196 0.099    N  198 0.098
   200  H   0.991    C  193 0.959
   201  H   0.992    C  193 0.970
   202  H   0.994    C  194 0.973
   203  H   0.996    C  194 0.971
   204  H   0.991    C  195 0.959
   205  H   0.993    C  195 0.961
   206  H   0.953    N  196 0.913
   207  H   0.939    N  198 0.909
   208  H   0.937    N  198 0.917
   209  H   0.948    N  199 0.926
   210  H   0.941    N  199 0.921
   211  N   3.002    C  212 1.022    H  280 0.952    H  222 0.922
   212  C   3.987    N  211 1.022    C  213 0.995    H  223 0.956    C  215 0.928
   213  C   3.885    O  214 1.865    C  212 0.995    H  281 0.955
   214  O   2.000    C  213 1.865
   215  C   3.988    C  216 1.000    H  225 0.970    H  224 0.963    C  212 0.928
   216  C   3.986    C  218 1.424    C  217 1.410    C  215 1.000    C  221 0.107
   217  C   3.992    C  219 1.445    C  216 1.410    H  226 0.968    C  220 0.114
   218  C   3.989    C  220 1.431    C  216 1.424    H  227 0.966    C  219 0.111
   219  C   3.992    C  217 1.445    C  221 1.437    H  228 0.970    C  218 0.111
   220  C   3.990    C  221 1.444    C  218 1.431    H  229 0.970    C  217 0.114
   221  C   3.992    C  220 1.444    C  219 1.437    H  230 0.971    C  216 0.107
   222  H   0.963    N  211 0.922
   223  H   0.999    C  212 0.956
   224  H   0.996    C  215 0.963
   225  H   0.995    C  215 0.970
   226  H   1.000    C  217 0.968
   227  H   0.997    C  218 0.966
   228  H   0.999    C  219 0.970
   229  H   0.997    C  220 0.970
   230  H   0.998    C  221 0.971
   231  N   3.002    C  232 1.016    H  282 0.955    H  242 0.950
   232  C   3.984    N  231 1.016    C  233 0.999    H  243 0.961    C  235 0.929
   233  C   3.894    O  234 1.862    C  232 0.999    H  283 0.954
   234  O   2.029    C  233 1.862
   235  C   3.988    C  236 0.997    H  245 0.974    H  244 0.966    C  232 0.929
   236  C   3.985    C  238 1.426    C  237 1.412    C  235 0.997    C  241 0.106
   237  C   3.992    C  239 1.443    C  236 1.412    H  246 0.970    C  240 0.115
   238  C   3.990    C  240 1.430    C  236 1.426    H  247 0.969    C  239 0.112
   239  C   3.990    C  237 1.443    C  241 1.437    H  248 0.970    C  238 0.112
   240  C   3.987    C  241 1.444    C  238 1.430    H  249 0.964    C  237 0.115
   241  C   3.989    C  240 1.444    C  239 1.437    H  250 0.967    C  236 0.106
   242  H   0.971    N  231 0.950
   243  H   0.998    C  232 0.961
   244  H   0.998    C  235 0.966
   245  H   0.997    C  235 0.974
   246  H   1.000    C  237 0.970
   247  H   0.999    C  238 0.969
   248  H   0.998    C  239 0.970
   249  H   0.995    C  240 0.964
   250  H   0.995    C  241 0.967
   251  N   2.995    C  252 1.009    H  284 0.960    H  255 0.926
   252  C   3.979    N  251 1.009    C  253 0.976    H  256 0.962    C  257 0.956    O  254 0.056
   253  C   3.884    O  254 1.880    C  252 0.976    H  285 0.957
   254  O   2.016    C  253 1.880    C  252 0.056
   255  H   0.965    N  251 0.926
   256  H   0.997    C  252 0.962
   257  C   3.986    C  258 1.003    H  265 0.973    H  264 0.971    C  252 0.956
   258  C   3.987    C  259 1.005    C  257 1.003    H  267 0.970    H  266 0.964
   259  C   3.952    C  258 1.005    N  260 0.975    H  269 0.963    H  268 0.962
   260  N   3.458    C  261 1.317    C  259 0.975    H  270 0.907    N  262 0.101    N  263 0.099
   261  C   3.976    N  262 1.327    N  260 1.317    N  263 1.297
   262  N   3.405    C  261 1.327    H  272 0.920    H  271 0.919    N  260 0.101    N  263 0.098
   263  N   3.374    C  261 1.297    H  274 0.918    H  273 0.914    N  260 0.099    N  262 0.098
   264  H   0.996    C  257 0.971
   265  H   0.995    C  257 0.973
   266  H   0.991    C  258 0.964
   267  H   0.996    C  258 0.970
   268  H   0.995    C  259 0.962
   269  H   0.990    C  259 0.963
   270  H   0.944    N  260 0.907
   271  H   0.944    N  262 0.919
   272  H   0.942    N  262 0.920
   273  H   0.938    N  263 0.914
   274  H   0.938    N  263 0.918
   275  H   0.992    C   61 0.956
   276  H   0.969    N  100 0.950
   277  H   0.994    C  102 0.955
   278  H   0.968    N  120 0.958
   279  H   0.993    C  189 0.954
   280  H   0.968    N  211 0.952
   281  H   0.994    C  213 0.955
   282  H   0.967    N  231 0.955
   283  H   0.994    C  233 0.954
   284  H   0.971    N  251 0.960
   285  H   0.995    C  253 0.957
 
molecular dipole:
                 x           y           z       tot (Debye)
 q only:       74.290      78.473     -53.355
   full:       76.355      79.172     -52.447     309.734
molecular quadrupole (traceless):
                xx          xy          yy          xz          yz          zz
 q only:      131.225    2903.671     995.784   -1869.132   -2203.526   -1127.010
  q+dip:      244.753    3028.000     980.084   -1878.826   -2152.878   -1224.837
   full:      247.237    3026.410     983.582   -1876.457   -2153.507   -1230.819
speedup 11.98
cpu  time for grad   12.24 s
wall time for grad    1.02 s

SCC energy    :    -440.0967206
rep           :       5.5967938
ES            :       1.6871395
AES           :      -0.0850465
AXC           :       0.1639960
disp          :      -0.3385480
XB            :       0.0000000
fix           :       0.0000000
Gborn         :       0.0000000
Gsasa         :       0.0000000
Ghb           :       0.0000000
Gshift        :       0.0000000
Gsolv         :      -0.6918755     -434.16
Etot ala COSMO:    -440.0967206
grad norm     :       0.5665969
total E       :    -434.4672888
atomizationE  :      77.6181564    48706.13
(atE without considering molecular charge,
 total energy contains solvation terms)
H-L gap (eV)  :          0.8724

------------------------------------------------------------------------
 * finished run on 2019/02/16 at 08:09:54.896     
------------------------------------------------------------------------
 total:
 * wall-time:     0 d,  0 h,  0 min,  1.256 sec
 *  cpu-time:     0 d,  0 h,  0 min, 14.822 sec
 * ratio c/w:    11.796 speedup
 SCF:
 * wall-time:     0 d,  0 h,  0 min,  1.129 sec
 *  cpu-time:     0 d,  0 h,  0 min, 13.521 sec
 * ratio c/w:    11.981 speedup

