      -----------------------------------------------------------      
     |                   =====================                   |     
     |                           x T B                           |     
     |                   =====================                   |     
     |                         S. Grimme                         |     
     |          Mulliken Center for Theoretical Chemistry        |     
     |                    University of Bonn                     |     
     |                 Version 6.0.1 (SAW181210)                 |     
      -----------------------------------------------------------      

   This program is distributed in the hope that it will be useful,
   but WITHOUT ANY WARRANTY; without even the implied warranty of
   MERCHANTABILITY or FITNESS FOR A PARTICULAR PURPOSE.
   
   FOR NON-COMMERCIAL, ACADEMIA USE ONLY.
   
   Cite this work as:
   S. Grimme, C. Bannwarth, P. Shushkov, J. Comput. Theory Chem., 2017,
   13, 1989-2009.
   C. Bannwarth, S. Ehlert and S. Grimme., ChemRxiv, 2018, preprint.
   http://doi.org/10.26434/chemrxiv.7246238.v1
   
   for sTDA-xTB:
   S. Grimme and C. Bannwarth, J. Chem. Phys., 2016, 145, 054103.
   
   in the mass-spec context:
   V. Asgeirsson, C. Bauer and S. Grimme, Chem. Sci., 2017, 8, 4879.
   
   if GBSA is used:
   P. Shushkov, F. März and S. Grimme, unpublished.
   
   for ANC optimizer:
   S. Grimme, unpublished.
   Rational Function algorithm used in ANCopt:
   F. Eckert, P. Pulay, H.-J. Werner, J. Comput. Chem., 1997, 18, 1473.
   
   with help from (in alphabetical order)
   C. Bannwarth, F. Bohle, G. Brandenburg, E. Caldeweyher, M. Checinski,
   S. Dohm, S. Ehlert, S. Ehrlich, F. März, H. Neugebauer, J. Pisarek,
   P. Pracht, P. Shushkov, and S. Spicher.
   
 * started run on 2019/02/16 at 08:11:08.056     
========================================================================
 # omp threads = 12
========================================================================
number of atoms            : 54
number of electrons        : 158
charge                     : -2
spin                       : .0
first test random number   : .1188

########################################################################
# WARNING! Please study the warnings concerning your input carefully
#  - Process number higher than OMP_NUM_THREADS, I hope you know what you are doing.
########################################################################

           ------------------------------------------------- 
          |                 G F N 2 - x T B                 |
          | Geometry, Frequencies, Noncovalent interactions |
          |            JCTC 2018 parametrisation            |
           ------------------------------------------------- 
 
      method parameters     
 k(s)        :  1.8500
 k(p)        :  2.2300
 k(d)        :  2.2300
 k(f)        :  2.0000
 kEN (H0ij)  : -2.0000
 D4 a1       :  0.5200
 D4 a2       :  5.0000
 D4 s6       :  1.0000
 D4 s8       :  2.7000
 D4 s9       :  5.0000
 alphaj      :  2.0000

 Solvent             : h2o
 Using internal parameter file: .param_gbsa2_h2o
 Gsolv ref. state (COSMO-RS): gsolv [1 M gas/solution]
 temperature (mdtemp)       :    298.150000000000     
 dielectric constant        :    80.2000000000000     
 rho                        :    1.00000000000000     
 mass                       :    18.0000000000000     
 surface tension            :    15.5689454083859     
 probe radius               :   0.975313790000000     
 vdW radii scaling          :    1.00000000000000     
 Gshift (Eh)                :   1.857443126794793E-003
 c1                         :    1.55243817000000     
 soset                      :   0.130326360000000     
 HB correction              :  T

            Z     q(EN)     CN     RAES       Cart. coordinates
     1  N   5.0   -0.24    3.20    1.96    14.15246    47.43322    22.40238
     2  C   4.0    0.03    4.20    4.01    11.57592    46.51015    22.15409
     3  C   4.0    0.05    3.24    3.04    11.08072    46.34724    19.31605
     4  O   6.0   -0.34    1.17    1.80    10.10124    44.49524    18.28096
     5  C   4.0   -0.06    4.22    4.05     9.54037    48.16263    23.34443
     6  C   4.0   -0.06    4.16    3.92     9.76497    48.64897    26.16663
     7  C   4.0    0.22    3.08    3.02     9.72709    46.39680    28.05098
     8  O   6.0   -0.37    1.16    1.80     8.15385    46.56277    29.81955
     9  O   6.0   -0.34    1.16    1.80    11.38376    44.71421    27.82462
    10  H   1.0    0.05    1.02    1.43    14.43478    48.82758    23.71969
    11  H   1.0    0.05    1.05    1.44    11.43808    44.59586    22.94999
    12  H   1.0    0.01    1.03    1.43     9.51926    49.98778    22.38884
    13  H   1.0    0.03    1.03    1.43     7.71856    47.25994    22.96671
    14  H   1.0    0.02    1.03    1.43    11.53807    49.59603    26.58716
    15  H   1.0    0.01    1.03    1.43     8.21686    49.88487    26.73341
    16  N   5.0   -0.22    3.19    1.95    14.57373    40.95809    16.21441
    17  C   4.0    0.02    4.26    4.12    13.41511    38.44311    16.69527
    18  C   4.0    0.14    3.37    3.07    10.98252    37.99912    15.04011
    19  O   6.0   -0.33    1.22    1.80    10.55781    35.92201    14.08236
    20  H   1.0    0.07    1.02    1.43    14.81231    42.13174    17.70689
    21  H   1.0    0.04    1.04    1.43    14.75294    36.95513    16.20480
    22  C   4.0   -0.04    4.30    4.19    12.58361    38.36271    19.46577
    23  C   4.0   -0.05    4.18    3.97    14.78496    38.15015    21.31194
    24  C   4.0    0.23    3.14    3.03    15.91016    35.48309    21.10012
    25  O   6.0   -0.36    1.16    1.80    18.07563    35.20736    20.24908
    26  O   6.0   -0.35    1.18    1.80    14.47334    33.72666    21.83657
    27  H   1.0    0.05    1.03    1.43    11.49660    40.08039    19.83932
    28  H   1.0    0.05    1.03    1.43    11.31801    36.75083    19.73386
    29  H   1.0    0.03    1.02    1.43    16.20632    39.58341    20.92730
    30  H   1.0    0.03    1.03    1.43    14.05520    38.39035    23.22593
    31  N   5.0   -0.15    3.44    2.04     9.55538    39.98930    14.60403
    32  C   4.0    0.03    4.33    4.25     7.27057    39.86784    12.95269
    33  C   4.0    0.06    3.27    3.05     8.06928    39.06056    10.32286
    34  O   6.0   -0.35    1.10    1.80     6.99116    37.39087     9.05143
    35  C   4.0   -0.05    4.38    4.35     5.89736    42.36269    13.08243
    36  C   4.0   -0.05    4.12    3.85     3.82980    42.39675    11.14630
    37  S   6.0   -0.14    2.53    3.10     2.60825    45.50043    10.76450
    38  C   4.0   -0.11    3.88    3.43     5.00489    46.97884     8.77059
    39  H   1.0    0.10    1.08    1.44     9.77149    41.58822    15.63928
    40  H   1.0    0.04    1.05    1.44     6.05319    38.35267    13.69478
    41  H   1.0    0.04    1.03    1.43     5.15605    42.62536    14.98714
    42  H   1.0    0.03    1.04    1.44     7.26718    43.86328    12.68942
    43  H   1.0    0.03    1.09    1.44     4.50636    41.75292     9.30527
    44  H   1.0    0.02    1.08    1.44     2.25844    41.18284    11.69572
    45  H   1.0   -0.00    1.05    1.44     4.42994    48.93349     8.60954
    46  H   1.0    0.02    1.03    1.43     6.85640    46.82208     9.63967
    47  H   1.0    0.00    1.04    1.43     5.00528    46.06770     6.93271
    48  O   6.0   -0.34    1.92    1.82     5.96757    41.62099    20.01168
    49  H   1.0    0.15    1.01    1.43     7.51014    42.48069    19.53495
    50  H   1.0    0.11    0.97    1.43     6.08280    41.32097    21.79421
    51  H   1.0    0.08    1.07    1.44    15.17478    46.14962    22.84937
    52  H   1.0    0.03    1.05    1.44    11.55535    47.78856    18.18982
    53  H   1.0    0.07    1.06    1.44    16.12965    40.75054    15.55974
    54  H   1.0    0.03    1.05    1.44     9.55430    39.88272     9.49231

  Z AO/shell   Hii/eV     exponent
  1     Wed Apr 25 08:07:45 CEST 2018   EN: 2.200 GM2: 0.406  GM3: 0.0800  RAES: 1.40
     1s    -10.707211    1.230000
  6     Wed Apr 25 08:07:45 CEST 2018   EN: 2.550 GM2: 0.538  GM3: 0.1500  RAES: 3.00
     2s    -13.970922    2.096432
     2p    -10.063292    1.800000
  7     Wed Apr 25 08:07:45 CEST 2018   EN: 3.040 GM2: 0.461  GM3:-0.0640  RAES: 1.90
     2s    -16.686243    2.339881
     2p    -12.523956    2.014332
  8     Wed Apr 25 08:07:45 CEST 2018   EN: 3.440 GM2: 0.452  GM3:-0.0517  RAES: 1.80
     2s    -20.229985    2.439742
     2p    -15.503117    2.137023
 16     Tue Apr 24 11:44:34 CEST 2018   EN: 2.580 GM2: 0.340  GM3:-0.0502  RAES: 3.10
     3s    -20.029654    1.981333
     3p    -11.377694    2.025643
     3d     -0.420282    1.702555
 no old-style atom pair restraining (fixing) potential

molecular fragmentation (1/2 indicates fragments):
111111111111111222222222222222222222222222222222221122
# atoms in fragment 1/2:    17    37
 fragment masses (1/2) :      130.12      279.33
CMA distance (Bohr)    :  11.324
constraining FC (au)   :  0.0500
           ------------------------------------------------- 
          |        Self-Consistent Charge Iterations        |
           ------------------------------------------------- 

 Ncao       : 141
 Nao        : 140
 Nshell     : 82
 Nel        : 158
 T(el)      :   500.0
 intcut     :    35.0
 scfconv/Eh :  0.100E-06
   qconv/e  :  0.100E-04
 intneglect :  0.100E-08
 broydamp   :      0.400
 iter      E             dE          RMSdq      gap      omega  full diag
   1    -91.5990740 -0.915991E+02  0.550E+00    3.14       0.0  T
   2    -91.9325453 -0.333471E+00  0.253E+00    1.54       1.0  T
   3    -91.9562355 -0.236902E-01  0.150E+00    1.93       1.0  T
   4    -91.9762632 -0.200277E-01  0.329E-01    1.38       1.0  T
   5    -91.9775395 -0.127635E-02  0.174E-01    1.47       1.0  T
   6    -91.9777097 -0.170212E-03  0.641E-02    1.49       1.0  T
   7    -91.9777549 -0.451531E-04  0.293E-02    1.48       1.0  T
   8    -91.9777607 -0.585900E-05  0.103E-02    1.47       1.3  T
   9    -91.9777614 -0.649769E-06  0.484E-03    1.47       2.8  T
  10    -91.9777615 -0.138649E-06  0.234E-03    1.47       5.8  T
  11    -91.9777616 -0.438234E-07  0.100E-03    1.47      13.6  T
  12    -91.9777616 -0.541378E-08  0.442E-04    1.47      30.8  T
  13    -91.9777616 -0.990752E-09  0.206E-04    1.47      66.0  T
  14    -91.9777616 -0.307224E-09  0.666E-05    1.47     204.3  T
  15    -91.9777616 -0.285070E-10  0.263E-05    1.47     516.7  T
speedup 11.75
cpu  time for SCC    0.97 s
wall time for SCC    0.08 s

   *** convergence criteria satisfied after 15 iterations ***

          eigenvalues
 #    :          67         68         69         70         71         72         73         74
 occ. :        2.000      2.000      2.000      2.000      2.000      2.000      2.000      2.000
 eps  :       -11.776    -11.730    -11.236    -11.138    -10.689    -10.610    -10.416    -10.210
 #    :          75         76         77         78         79         80         81         82
 occ. :        2.000      2.000      2.000      2.000      2.000      0.000      0.000      0.000
 eps  :       -10.181    -10.142     -9.732     -9.689     -9.669     -8.202     -8.100     -5.927
 #    :          83         84         85         86         87         88         89         90
 occ. :        0.000      0.000      0.000      0.000      0.000      0.000      0.000      0.000
 eps  :        -5.175     -4.712     -4.589     -3.626     -1.153      0.084      0.181      0.257


   #   Z            q   n(s)   n(p)   n(d)      C6AA      α(0)
   1   7 N     -0.370  1.306  4.064  0.000    29.560     8.075
   2   6 C      0.053  1.048  2.899  0.000    19.708     6.324
   3   6 C      0.193  1.105  2.702  0.000    23.871     8.002
   4   8 O     -0.383  1.749  4.633  0.000    21.337     6.193
   5   6 C     -0.052  1.051  3.001  0.000    21.499     6.601
   6   6 C     -0.090  1.064  3.025  0.000    22.209     6.710
   7   6 C      0.367  1.028  2.605  0.000    20.783     7.460
   8   8 O     -0.655  1.780  4.876  0.000    27.518     7.033
   9   8 O     -0.660  1.782  4.879  0.000    27.644     7.049
  10   1 H      0.168  0.832  0.000  0.000     1.283     1.775
  11   1 H      0.028  0.972  0.000  0.000     2.620     2.531
  12   1 H      0.061  0.939  0.000  0.000     2.186     2.312
  13   1 H      0.035  0.965  0.000  0.000     2.519     2.482
  14   1 H      0.028  0.972  0.000  0.000     2.616     2.529
  15   1 H      0.036  0.964  0.000  0.000     2.508     2.477
  16   7 N     -0.385  1.311  4.073  0.000    29.946     8.127
  17   6 C      0.037  1.066  2.897  0.000    19.977     6.368
  18   6 C      0.271  1.053  2.677  0.000    22.426     7.754
  19   8 O     -0.521  1.757  4.764  0.000    24.253     6.603
  20   1 H      0.152  0.848  0.000  0.000     1.390     1.847
  21   1 H      0.020  0.980  0.000  0.000     2.733     2.585
  22   6 C     -0.040  1.050  2.989  0.000    21.273     6.565
  23   6 C     -0.080  1.060  3.020  0.000    22.036     6.683
  24   6 C      0.372  1.024  2.604  0.000    20.689     7.444
  25   8 O     -0.641  1.765  4.875  0.000    27.141     6.985
  26   8 O     -0.670  1.782  4.889  0.000    27.914     7.084
  27   1 H      0.037  0.963  0.000  0.000     2.484     2.465
  28   1 H      0.019  0.981  0.000  0.000     2.744     2.590
  29   1 H      0.015  0.985  0.000  0.000     2.803     2.618
  30   1 H      0.012  0.988  0.000  0.000     2.861     2.645
  31   7 N     -0.167  1.253  3.914  0.000    24.617     7.369
  32   6 C      0.031  1.063  2.906  0.000    20.054     6.377
  33   6 C      0.208  1.085  2.707  0.000    23.589     7.954
  34   8 O     -0.376  1.766  4.610  0.000    21.209     6.174
  35   6 C     -0.067  1.050  3.017  0.000    21.739     6.630
  36   6 C      0.002  1.050  2.948  0.000    20.543     6.452
  37  16 S     -0.218  1.909  4.257  0.052   150.359    20.638
  38   6 C     -0.068  1.058  3.010  0.000    21.881     6.673
  39   1 H      0.233  0.767  0.000  0.000     0.953     1.529
  40   1 H      0.079  0.921  0.000  0.000     1.985     2.203
  41   1 H      0.081  0.919  0.000  0.000     1.968     2.194
  42   1 H      0.072  0.928  0.000  0.000     2.068     2.249
  43   1 H      0.046  0.954  0.000  0.000     2.371     2.408
  44   1 H      0.058  0.942  0.000  0.000     2.227     2.334
  45   1 H      0.087  0.913  0.000  0.000     1.910     2.161
  46   1 H      0.059  0.941  0.000  0.000     2.215     2.328
  47   1 H      0.065  0.935  0.000  0.000     2.143     2.289
  48   8 O     -0.633  1.753  4.879  0.000    25.977     6.879
  49   1 H      0.305  0.695  0.000  0.000     0.707     1.321
  50   1 H      0.306  0.694  0.000  0.000     0.702     1.316
  51   1 H      0.170  0.830  0.000  0.000     1.270     1.765
  52   1 H      0.103  0.897  0.000  0.000     1.761     2.075
  53   1 H      0.183  0.817  0.000  0.000     1.194     1.711
  54   1 H      0.084  0.916  0.000  0.000     1.940     2.178

 Mol. C6AA /au·bohr⁶  :      30612.551390
 Mol. C8AA /au·bohr⁸  :     710813.089896
 Mol. α(0) /au        :        261.124816

 
 Wiberg/Mayer (AO) data. WBOs > 0.1 written file <wbo>
 largest (>0.05) Wiberg bond orders for each atom
           total WBO             WBO to atom ...
     1  N   3.011    C    2 1.010    H   51 0.960    H   10 0.948
     2  C   3.986    N    1 1.010    C    3 0.983    C    5 0.964    H   11 0.957    O    4 0.052
     3  C   3.880    O    4 1.847    C    2 0.983    H   52 0.950
     4  O   2.050    C    3 1.847    C    2 0.052
     5  C   3.993    C    6 1.000    H   13 0.975    H   12 0.972    C    2 0.964
     6  C   3.990    C    5 1.000    H   15 0.976    H   14 0.962    C    7 0.923    O    9 0.052    O    8 0.050
     7  C   3.931    O    8 1.494    O    9 1.492    C    6 0.923
     8  O   1.783    C    7 1.494    O    9 0.216    C    6 0.050
     9  O   1.782    C    7 1.492    O    8 0.216    C    6 0.052
    10  H   0.972    N    1 0.948
    11  H   0.999    C    2 0.957
    12  H   0.996    C    5 0.972
    13  H   0.999    C    5 0.975
    14  H   0.999    C    6 0.962
    15  H   0.997    C    6 0.976
    16  N   2.992    C   17 1.010    H   53 0.957    H   20 0.957
    17  C   3.981    N   16 1.010    C   22 0.986    H   21 0.967    C   18 0.915    O   19 0.052
    18  C   3.944    O   19 1.614    N   31 1.341    C   17 0.915
    19  O   1.931    C   18 1.614    N   31 0.196    C   17 0.052
    20  H   0.977    N   16 0.957
    21  H   0.999    C   17 0.967
    22  C   3.996    C   23 0.997    C   17 0.986    H   28 0.974    H   27 0.968
    23  C   3.991    C   22 0.997    H   29 0.978    H   30 0.972    C   24 0.929    O   25 0.050
    24  C   3.934    O   25 1.509    O   26 1.477    C   23 0.929
    25  O   1.797    C   24 1.509    O   26 0.216    C   23 0.050
    26  O   1.762    C   24 1.477    O   25 0.216
    27  H   0.999    C   22 0.968
    28  H   1.000    C   22 0.974
    29  H   1.000    C   23 0.978
    30  H   0.999    C   23 0.972
    31  N   3.473    C   18 1.341    C   32 0.948    H   39 0.898    O   19 0.196
    32  C   3.959    C   33 0.987    C   35 0.969    H   40 0.950    N   31 0.948
    33  C   3.901    O   34 1.878    C   32 0.987    H   54 0.954
    34  O   2.018    C   33 1.878
    35  C   3.982    C   36 1.012    C   32 0.969    H   41 0.968    H   42 0.964
    36  C   3.984    C   35 1.012    S   37 0.998    H   44 0.969    H   43 0.965
    37  S   2.097    C   38 1.007    C   36 0.998
    38  C   3.971    S   37 1.007    H   47 0.983    H   46 0.980    H   45 0.976
    39  H   0.946    N   31 0.898
    40  H   0.994    C   32 0.950
    41  H   0.993    C   35 0.968
    42  H   0.995    C   35 0.964
    43  H   0.998    C   36 0.965
    44  H   0.997    C   36 0.969
    45  H   0.992    C   38 0.976
    46  H   0.997    C   38 0.980
    47  H   0.996    C   38 0.983
    48  O   1.801    H   50 0.905    H   49 0.871
    49  H   0.907    O   48 0.871
    50  H   0.906    O   48 0.905
    51  H   0.971    N    1 0.960
    52  H   0.989    C    3 0.950
    53  H   0.966    N   16 0.957
    54  H   0.993    C   33 0.954
 
molecular dipole:
                 x           y           z       tot (Debye)
 q only:      -24.443     -75.417     -47.460
   full:      -23.443     -75.525     -46.413     233.067
molecular quadrupole (traceless):
                xx          xy          yy          xz          yz          zz
 q only:     1700.651   -1335.881   -2123.964    -854.648   -2801.386     423.313
  q+dip:     1702.010   -1268.073   -2162.596    -816.240   -2733.130     460.585
   full:     1703.090   -1268.774   -2163.174    -815.820   -2733.473     460.084
speedup 11.75
cpu  time for grad    1.09 s
wall time for grad    0.09 s

SCC energy    :     -91.9765126
rep           :       0.9637499
ES            :       0.6832985
AES           :      -0.0161681
AXC           :       0.0249522
disp          :      -0.0514992
XB            :       0.0000000
fix           :       0.0000000
Gborn         :       0.0000000
Gsasa         :       0.0000000
Ghb           :       0.0000000
Gshift        :       0.0000000
Gsolv         :      -0.3018601     -189.42
Etot ala COSMO:     -91.9765126
grad norm     :       0.3355205
total E       :     -91.0117344
atomizationE  :      15.1814933     9526.53
(atE without considering molecular charge,
 total energy contains solvation terms)
H-L gap (eV)  :          1.4662

------------------------------------------------------------------------
 * finished run on 2019/02/16 at 08:11:08.219     
------------------------------------------------------------------------
 total:
 * wall-time:     0 d,  0 h,  0 min,  0.161 sec
 *  cpu-time:     0 d,  0 h,  0 min,  1.726 sec
 * ratio c/w:    10.705 speedup
 SCF:
 * wall-time:     0 d,  0 h,  0 min,  0.105 sec
 *  cpu-time:     0 d,  0 h,  0 min,  1.224 sec
 * ratio c/w:    11.666 speedup

