      -----------------------------------------------------------      
     |                   =====================                   |     
     |                           x T B                           |     
     |                   =====================                   |     
     |                         S. Grimme                         |     
     |          Mulliken Center for Theoretical Chemistry        |     
     |                    University of Bonn                     |     
     |                 Version 6.0.1 (SAW181210)                 |     
      -----------------------------------------------------------      

   This program is distributed in the hope that it will be useful,
   but WITHOUT ANY WARRANTY; without even the implied warranty of
   MERCHANTABILITY or FITNESS FOR A PARTICULAR PURPOSE.
   
   FOR NON-COMMERCIAL, ACADEMIA USE ONLY.
   
   Cite this work as:
   S. Grimme, C. Bannwarth, P. Shushkov, J. Comput. Theory Chem., 2017,
   13, 1989-2009.
   C. Bannwarth, S. Ehlert and S. Grimme., ChemRxiv, 2018, preprint.
   http://doi.org/10.26434/chemrxiv.7246238.v1
   
   for sTDA-xTB:
   S. Grimme and C. Bannwarth, J. Chem. Phys., 2016, 145, 054103.
   
   in the mass-spec context:
   V. Asgeirsson, C. Bauer and S. Grimme, Chem. Sci., 2017, 8, 4879.
   
   if GBSA is used:
   P. Shushkov, F. März and S. Grimme, unpublished.
   
   for ANC optimizer:
   S. Grimme, unpublished.
   Rational Function algorithm used in ANCopt:
   F. Eckert, P. Pulay, H.-J. Werner, J. Comput. Chem., 1997, 18, 1473.
   
   with help from (in alphabetical order)
   C. Bannwarth, F. Bohle, G. Brandenburg, E. Caldeweyher, M. Checinski,
   S. Dohm, S. Ehlert, S. Ehrlich, F. März, H. Neugebauer, J. Pisarek,
   P. Pracht, P. Shushkov, and S. Spicher.
   
 * started run on 2019/02/16 at 08:10:44.532     
========================================================================
 # omp threads = 12
========================================================================
number of atoms            : 332
number of electrons        : 888
charge                     : 2
spin                       : .0
first test random number   : .5613

########################################################################
# WARNING! Please study the warnings concerning your input carefully
#  - Process number higher than OMP_NUM_THREADS, I hope you know what you are doing.
########################################################################

           ------------------------------------------------- 
          |                 G F N 2 - x T B                 |
          | Geometry, Frequencies, Noncovalent interactions |
          |            JCTC 2018 parametrisation            |
           ------------------------------------------------- 
 
      method parameters     
 k(s)        :  1.8500
 k(p)        :  2.2300
 k(d)        :  2.2300
 k(f)        :  2.0000
 kEN (H0ij)  : -2.0000
 D4 a1       :  0.5200
 D4 a2       :  5.0000
 D4 s6       :  1.0000
 D4 s8       :  2.7000
 D4 s9       :  5.0000
 alphaj      :  2.0000

 Solvent             : h2o
 Using internal parameter file: .param_gbsa2_h2o
 Gsolv ref. state (COSMO-RS): gsolv [1 M gas/solution]
 temperature (mdtemp)       :    298.150000000000     
 dielectric constant        :    80.2000000000000     
 rho                        :    1.00000000000000     
 mass                       :    18.0000000000000     
 surface tension            :    15.5689454083859     
 probe radius               :   0.975313790000000     
 vdW radii scaling          :    1.00000000000000     
 Gshift (Eh)                :   1.857443126794793E-003
 c1                         :    1.55243817000000     
 soset                      :   0.130326360000000     
 HB correction              :  T

            Z     q(EN)     CN     RAES       Cart. coordinates
     1  N   5.0   -0.11    4.12    3.21    27.24587    28.66014   -22.37147
     2  C   4.0    0.00    4.30    4.19    29.00875    30.78559   -21.69452
     3  C   4.0    0.15    3.42    3.08    28.24810    31.61130   -18.98869
     4  O   6.0   -0.32    1.33    1.80    25.97217    31.60175   -18.52038
     5  C   4.0   -0.03    4.24    4.09    28.63921    33.01366   -23.52341
     6  C   4.0   -0.03    4.15    3.89    30.92084    34.78053   -23.58886
     7  C   4.0    0.25    3.07    3.02    30.96627    36.57514   -25.97818
     8  O   6.0   -0.31    1.25    1.80    28.87669    36.96544   -27.00801
     9  O   6.0   -0.25    1.15    1.80    33.05958    37.45295   -26.64011
    10  H   1.0    0.07    1.03    1.43    26.54384    28.92882   -24.16381
    11  H   1.0    0.09    1.09    1.44    28.16646    26.85517   -22.30966
    12  H   1.0    0.08    1.06    1.44    25.73270    28.80163   -21.12795
    13  H   1.0    0.05    1.04    1.43    30.95761    30.12679   -21.77136
    14  H   1.0    0.06    1.03    1.43    28.41495    32.29924   -25.44936
    15  H   1.0    0.06    1.03    1.43    26.96005    34.09439   -23.02912
    16  H   1.0    0.06    1.02    1.43    30.97197    36.01554   -21.93410
    17  H   1.0    0.06    1.02    1.43    32.69386    33.72923   -23.65255
    18  N   5.0   -0.14    3.44    2.04    30.06210    32.02813   -17.35437
    19  C   4.0    0.04    4.40    4.38    29.62042    32.73959   -14.75987
    20  C   4.0    0.15    3.43    3.09    30.20239    35.56771   -14.48529
    21  O   6.0   -0.28    1.22    1.80    31.90105    36.63705   -15.67344
    22  H   1.0    0.09    1.08    1.44    31.89874    32.09052   -17.90301
    23  H   1.0    0.07    1.07    1.44    27.61876    32.44746   -14.34509
    24  C   4.0   -0.03    4.33    4.25    31.36866    31.37262   -12.86084
    25  C   4.0   -0.01    3.52    3.12    30.36371    29.11605   -11.49058
    26  C   4.0   -0.04    3.48    3.11    28.01331    28.93825   -10.34328
    27  C   4.0   -0.04    3.53    3.13    31.97205    27.08108   -11.19166
    28  C   4.0   -0.03    3.45    3.09    27.20297    26.73105    -9.22932
    29  C   4.0   -0.04    3.44    3.09    31.21797    24.87248   -10.00843
    30  C   4.0    0.07    3.43    3.09    28.76514    24.61425    -9.13845
    31  O   6.0   -0.23    2.10    1.84    27.80379    22.36859    -8.26862
    32  H   1.0    0.06    1.05    1.44    33.08081    30.83995   -13.87635
    33  H   1.0    0.06    1.05    1.44    31.91976    32.77794   -11.44553
    34  H   1.0    0.07    1.05    1.44    26.78680    30.56259   -10.31437
    35  H   1.0    0.05    1.05    1.44    33.84264    27.29047   -11.96249
    36  H   1.0    0.07    1.03    1.43    25.39147    26.63864    -8.29887
    37  H   1.0    0.05    1.03    1.43    32.50922    23.30849    -9.78494
    38  H   1.0    0.13    1.03    1.43    29.08239    21.36649    -7.44552
    39  N   5.0   -0.13    3.51    2.08    28.50270    36.79420   -13.01248
    40  C   4.0    0.04    4.39    4.37    28.75703    39.50689   -12.50403
    41  C   4.0    0.14    3.43    3.09    28.72038    39.88637    -9.63530
    42  O   6.0   -0.31    1.34    1.80    27.67011    38.27397    -8.29565
    43  C   4.0   -0.03    4.37    4.33    26.46963    40.83792   -13.63299
    44  C   4.0   -0.01    3.59    3.16    26.20581    40.49288   -16.40098
    45  C   4.0   -0.03    3.46    3.10    24.81272    38.48158   -17.37939
    46  C   4.0   -0.03    3.48    3.10    27.45641    42.13383   -18.01887
    47  C   4.0   -0.03    3.40    3.08    24.76421    38.13007   -19.95288
    48  C   4.0   -0.03    3.37    3.07    27.47889    41.67711   -20.60829
    49  C   4.0   -0.04    3.38    3.07    26.12724    39.68342   -21.56303
    50  H   1.0    0.12    1.10    1.44    27.11296    35.86513   -12.07424
    51  H   1.0    0.06    1.05    1.44    30.52055    40.16488   -13.35172
    52  H   1.0    0.05    1.04    1.43    24.79690    40.09357   -12.66996
    53  H   1.0    0.05    1.03    1.43    26.58788    42.85417   -13.18042
    54  H   1.0    0.07    1.03    1.43    23.82873    37.21565   -16.12238
    55  H   1.0    0.06    1.03    1.43    28.51593    43.68741   -17.22822
    56  H   1.0    0.06    1.03    1.43    23.72473    36.55168   -20.71724
    57  H   1.0    0.06    1.03    1.43    28.55719    42.89048   -21.84482
    58  H   1.0    0.06    1.03    1.43    26.19493    39.28166   -23.56396
    59  N   5.0   -0.13    3.55    2.12    29.85008    41.82703    -8.51649
    60  C   4.0    0.04    4.46    4.47    29.81550    42.35633    -5.91945
    61  C   4.0    0.07    3.29    3.05    28.46056    44.84830    -5.48484
    62  O   6.0   -0.28    1.14    1.80    28.72342    46.68165    -6.94364
    63  H   1.0    0.10    1.09    1.44    30.54953    43.20232    -9.65788
    64  H   1.0    0.06    1.07    1.44    28.79125    40.83592    -4.95907
    65  C   4.0    0.06    4.32    4.24    32.54196    42.45929    -5.13280
    66  O   6.0   -0.25    2.13    1.84    33.31680    39.92614    -4.84885
    67  C   4.0   -0.06    4.14    3.87    32.87693    44.10912    -2.84653
    68  H   1.0    0.06    1.05    1.44    33.62163    43.30817    -6.70155
    69  H   1.0    0.13    1.03    1.43    35.10647    39.93618    -4.47811
    70  H   1.0    0.06    1.00    1.43    34.70041    43.79786    -1.97133
    71  H   1.0    0.06    1.01    1.43    32.77141    46.07409    -3.41524
    72  H   1.0    0.06    1.01    1.43    31.38736    43.76111    -1.48893
    73  O   6.0   -0.31    1.94    1.82    21.72173    32.88494   -25.77008
    74  H   1.0    0.13    0.97    1.43    23.14849    33.93159   -26.18887
    75  H   1.0    0.14    0.97    1.43    21.16504    32.14231   -27.32993
    76  O   6.0   -0.29    1.93    1.82    31.69100    46.47715   -11.86285
    77  H   1.0    0.15    0.97    1.43    32.21365    48.02316   -12.66501
    78  H   1.0    0.15    0.98    1.43    30.59498    46.99955   -10.49277
    79  O   6.0   -0.31    1.95    1.82    35.81631    31.66873   -16.97862
    80  H   1.0    0.13    0.97    1.43    37.43509    31.28232   -17.69729
    81  H   1.0    0.14    0.97    1.43    35.71059    33.48326   -16.85871
    82  O   6.0   -0.32    2.05    1.83    29.69927    24.28226   -22.84633
    83  H   1.0    0.13    0.97    1.43    31.38410    24.47342   -23.49352
    84  H   1.0    0.13    0.97    1.43    28.79972    23.23125   -24.03282
    85  O   6.0   -0.27    1.92    1.82    29.36648    24.89827    -1.46451
    86  H   1.0    0.16    1.00    1.43    30.32862    26.10690    -2.43998
    87  H   1.0    0.14    0.97    1.43    30.46928    24.29852    -0.14075
    88  O   6.0   -0.27    1.92    1.82    23.24165    26.91338    -3.81844
    89  H   1.0    0.15    0.97    1.43    23.24270    27.23102    -2.03765
    90  H   1.0    0.14    0.96    1.43    21.63367    26.09595    -4.20934
    91  O   6.0   -0.29    1.92    1.82    28.79774    19.23461    -3.37095
    92  H   1.0    0.13    0.97    1.43    29.36796    18.86932    -1.66175
    93  H   1.0    0.14    0.97    1.43    27.00371    19.40137    -3.20216
    94  O   6.0   -0.30    1.99    1.83    20.47020    37.70021   -31.47675
    95  H   1.0    0.14    0.97    1.43    20.25365    35.90142   -31.41433
    96  H   1.0    0.14    0.97    1.43    18.77984    38.41623   -31.51858
    97  O   6.0   -0.29    1.92    1.82    39.50538    31.69100   -11.86285
    98  H   1.0    0.13    0.97    1.43    37.95937    32.21365   -12.66501
    99  H   1.0    0.12    0.97    1.43    38.98298    30.59498   -10.49277
   100  O   6.0   -0.31    1.95    1.82    34.86810    35.84944    -9.68605
   101  H   1.0    0.14    0.97    1.43    36.59649    36.28312   -10.03830
   102  H   1.0    0.14    0.97    1.43    34.06680    37.34123    -9.03479
   103  O   6.0   -0.27    1.91    1.82    14.49296    34.37669   -25.70733
   104  H   1.0    0.13    0.97    1.43    16.04202    33.43239   -25.90780
   105  H   1.0    0.14    0.97    1.43    13.57787    33.53500   -24.35793
   106  O   6.0   -0.27    1.92    1.82    31.66873    50.16622   -16.97862
   107  H   1.0    0.13    0.97    1.43    31.28232    48.54744   -17.69729
   108  H   1.0    0.14    0.97    1.43    33.48326    50.27194   -16.85871
   109  N   5.0   -0.17    3.26    1.97    49.18833    28.50270   -13.01248
   110  C   4.0    0.04    4.23    4.06    46.47564    28.75703   -12.50403
   111  C   4.0    0.09    3.21    3.04    46.09616    28.72038    -9.63530
   112  O   6.0   -0.26    1.14    1.80    47.70856    27.67011    -8.29565
   113  C   4.0   -0.03    4.37    4.34    45.14461    26.46963   -13.63299
   114  C   4.0   -0.01    3.60    3.16    45.48965    26.20581   -16.40098
   115  C   4.0   -0.04    3.47    3.10    47.50095    24.81272   -17.37939
   116  C   4.0   -0.03    3.48    3.10    43.84870    27.45641   -18.01887
   117  C   4.0   -0.02    3.39    3.08    47.85246    24.76421   -19.95288
   118  C   4.0   -0.03    3.37    3.07    44.30543    27.47889   -20.60829
   119  C   4.0   -0.02    3.38    3.07    46.29911    26.12724   -21.56303
   120  H   1.0    0.11    1.03    1.43    50.11740    27.11296   -12.07424
   121  H   1.0    0.06    1.04    1.43    45.81766    30.52055   -13.35172
   122  H   1.0    0.05    1.04    1.43    45.88896    24.79690   -12.66996
   123  H   1.0    0.05    1.03    1.43    43.12836    26.58788   -13.18042
   124  H   1.0    0.06    1.03    1.43    48.76688    23.82873   -16.12238
   125  H   1.0    0.06    1.03    1.43    42.29512    28.51593   -17.22822
   126  H   1.0    0.07    1.03    1.43    49.43085    23.72473   -20.71724
   127  H   1.0    0.06    1.03    1.43    43.09205    28.55719   -21.84482
   128  H   1.0    0.07    1.03    1.43    46.70087    26.19493   -23.56396
   129  N   5.0   -0.18    3.20    1.96    41.18446    26.87106    -3.59523
   130  C   4.0    0.03    4.26    4.12    38.95135    25.44699    -2.79129
   131  C   4.0    0.09    3.27    3.05    38.21770    25.99985    -0.14642
   132  O   6.0   -0.25    1.15    1.80    39.71921    25.87528     1.56432
   133  C   4.0   -0.04    4.41    4.39    39.52081    22.58313    -2.94021
   134  C   4.0   -0.02    4.20    4.01    37.24086    20.95843    -2.46642
   135  C   4.0   -0.07    4.17    3.93    35.25235    21.49530    -4.43398
   136  C   4.0   -0.07    4.11    3.83    37.98242    18.13410    -2.79307
   137  H   1.0    0.11    1.02    1.43    42.78063    26.61793    -2.56852
   138  H   1.0    0.04    1.06    1.44    37.45044    25.95978    -4.11160
   139  H   1.0    0.04    1.03    1.43    40.27552    22.18174    -4.81692
   140  H   1.0    0.07    1.03    1.43    41.00386    22.18174    -1.55777
   141  H   1.0    0.06    1.05    1.44    36.49346    21.25846    -0.56485
   142  H   1.0    0.05    1.00    1.43    33.64864    20.23183    -4.17517
   143  H   1.0    0.05    1.00    1.43    34.50721    23.40493    -4.31589
   144  H   1.0    0.04    1.00    1.43    36.02405    21.18962    -6.31334
   145  H   1.0    0.05    1.00    1.43    36.35291    16.92400    -2.51006
   146  H   1.0    0.05    1.00    1.43    38.71448    17.84179    -4.68797
   147  H   1.0    0.06    1.00    1.43    39.43465    17.60525    -1.43683
   148  N   5.0   -0.18    3.21    1.96    26.77711    35.84992    -0.37903
   149  C   4.0    0.03    4.36    4.32    27.32027    34.79518    -2.86750
   150  C   4.0    0.15    3.40    3.08    24.84794    33.76719    -4.03810
   151  O   6.0   -0.27    1.23    1.80    23.62879    32.22020    -2.83565
   152  C   4.0   -0.03    4.31    4.21    29.37148    32.81117    -2.64255
   153  C   4.0   -0.03    4.29    4.17    30.12649    32.08471    -5.28115
   154  C   4.0    0.16    3.24    3.04    32.49328    30.41934    -5.14356
   155  O   6.0   -0.31    1.27    1.80    32.48441    28.44145    -4.02600
   156  N   5.0   -0.18    3.20    1.96    34.47951    31.22832    -6.37107
   157  H   1.0    0.10    1.03    1.43    26.88115    34.58066     1.05914
   158  H   1.0    0.05    1.06    1.44    27.98562    36.37007    -4.04166
   159  H   1.0    0.06    1.03    1.43    30.96060    33.61249    -1.60355
   160  H   1.0    0.07    1.03    1.43    28.66171    31.16529    -1.62356
   161  H   1.0    0.06    1.04    1.43    28.63346    30.96342    -6.15464
   162  H   1.0    0.05    1.03    1.43    30.49634    33.74195    -6.44463
   163  H   1.0    0.10    1.05    1.44    34.43616    32.77716    -7.49902
   164  H   1.0    0.09    1.03    1.43    36.05136    30.12969    -6.49528
   165  N   5.0   -0.14    3.50    2.08    24.34794    34.52147    -6.35925
   166  C   4.0    0.03    4.50    4.54    21.92926    34.15481    -7.62342
   167  C   4.0    0.15    3.46    3.10    22.60554    32.93128   -10.16427
   168  O   6.0   -0.32    1.31    1.80    24.38111    33.81860   -11.41142
   169  C   4.0   -0.02    4.32    4.23    20.53336    36.62192    -8.03948
   170  C   4.0   -0.04    4.19    3.98    19.63581    37.66660    -5.47811
   171  C   4.0   -0.07    4.13    3.86    18.13863    36.17352    -9.67321
   172  C   4.0   -0.06    3.99    3.60    19.08404    40.53795    -5.47947
   173  H   1.0    0.11    1.11    1.45    25.48587    35.83886    -7.18060
   174  H   1.0    0.06    1.06    1.44    20.82625    32.87693    -6.42984
   175  H   1.0    0.05    1.05    1.44    21.79699    37.97006    -8.95579
   176  H   1.0    0.06    1.03    1.43    17.94997    36.64299    -4.88042
   177  H   1.0    0.06    1.03    1.43    21.09493    37.33263    -4.05427
   178  H   1.0    0.05    1.00    1.43    16.98960    37.86661    -9.72017
   179  H   1.0    0.06    1.00    1.43    18.63233    35.68626   -11.60779
   180  H   1.0    0.06    1.00    1.43    17.03114    34.64793    -8.86541
   181  H   1.0    0.06    1.00    1.43    18.33822    41.10920    -3.65853
   182  H   1.0    0.05    1.00    1.43    20.82358    41.56216    -5.84348
   183  H   1.0    0.05    1.00    1.43    17.70789    41.02461    -6.92230
   184  N   5.0   -0.14    3.45    2.05    21.22336    30.97847   -10.90868
   185  C   4.0    0.04    4.43    4.43    21.59071    29.75327   -13.34579
   186  C   4.0    0.16    3.44    3.09    19.71486    30.71838   -15.28059
   187  O   6.0   -0.28    1.25    1.80    17.46029    30.56766   -14.83917
   188  C   4.0   -0.04    4.26    4.12    21.14732    26.89644   -12.91131
   189  C   4.0   -0.05    4.15    3.90    22.61761    25.30054   -14.85910
   190  C   4.0   -0.00    4.17    3.95    22.17915    22.40313   -14.53835
   191  N   5.0   -0.13    3.40    2.02    23.52397    21.07951   -16.55085
   192  C   4.0    0.10    3.34    3.06    23.26151    18.62569   -17.09031
   193  N   5.0   -0.16    3.24    1.97    21.48591    17.27426   -15.89883
   194  N   5.0   -0.17    3.23    1.96    24.56588    17.70104   -19.04365
   195  H   1.0    0.09    1.07    1.44    19.70520    30.35684    -9.93155
   196  H   1.0    0.06    1.06    1.44    23.53812    30.11966   -13.92906
   197  H   1.0    0.05    1.03    1.43    21.77154    26.38825   -11.01559
   198  H   1.0    0.06    1.03    1.43    19.12694    26.51558   -13.03600
   199  H   1.0    0.05    1.03    1.43    21.97898    25.82917   -16.74504
   200  H   1.0    0.05    1.03    1.43    24.62176    25.70772   -14.65220
   201  H   1.0    0.06    1.02    1.43    22.83531    21.78921   -12.67655
   202  H   1.0    0.06    1.02    1.43    20.16525    21.99144   -14.67786
   203  H   1.0    0.08    1.07    1.44    24.94548    22.05179   -17.37788
   204  H   1.0    0.11    1.04    1.43    20.99024    17.76344   -14.12050
   205  H   1.0    0.11    1.03    1.43    21.37750    15.38914   -16.24208
   206  H   1.0    0.09    1.03    1.43    25.83211    18.76908   -19.97808
   207  H   1.0    0.10    1.03    1.43    24.39877    15.85757   -19.48151
   208  N   5.0   -0.14    3.37    2.01    20.73951    31.66983   -17.36449
   209  C   4.0    0.02    4.29    4.18    19.04352    32.37576   -19.41153
   210  C   4.0    0.16    3.33    3.06    18.63868    35.18491   -19.54565
   211  O   6.0   -0.29    1.28    1.80    18.12888    36.48227   -17.70269
   212  H   1.0    0.11    1.09    1.44    22.62662    31.92646   -17.56257
   213  H   1.0    0.05    1.03    1.43    19.82421    31.68390   -21.19304
   214  H   1.0    0.07    1.05    1.44    17.22119    31.47941   -19.04187
   215  N   5.0   -0.15    3.43    2.03    19.05511    36.23006   -21.81472
   216  C   4.0    0.04    4.31    4.22    18.77885    38.97248   -22.22027
   217  C   4.0    0.10    3.22    3.04    16.10572    39.94857   -21.67806
   218  O   6.0   -0.27    1.12    1.80    15.90829    41.92591   -20.42910
   219  H   1.0    0.09    1.08    1.44    19.60909    35.16692   -23.31765
   220  H   1.0    0.06    1.06    1.44    20.00768    39.96090   -20.87994
   221  C   4.0   -0.04    4.28    4.16    19.63134    39.58351   -24.90861
   222  C   4.0   -0.04    4.20    3.99    19.15133    42.30330   -25.68132
   223  C   4.0    0.00    4.21    4.01    20.45511    42.89305   -28.19541
   224  N   5.0   -0.13    3.39    2.02    23.12620    43.42390   -27.90196
   225  C   4.0    0.10    3.34    3.06    25.05209    41.81480   -28.12025
   226  N   5.0   -0.17    3.28    1.98    24.79613    39.48881   -28.98831
   227  N   5.0   -0.16    3.25    1.97    27.39154    42.62541   -27.58046
   228  H   1.0    0.05    1.03    1.43    21.64777    39.17746   -25.01982
   229  H   1.0    0.05    1.03    1.43    18.59978    38.35847   -26.21192
   230  H   1.0    0.06    1.03    1.43    17.12398    42.62604   -25.88628
   231  H   1.0    0.06    1.03    1.43    19.81082    43.59928   -24.21864
   232  H   1.0    0.06    1.05    1.44    20.17802    41.34442   -29.49844
   233  H   1.0    0.06    1.03    1.43    19.57365    44.57739   -28.96453
   234  H   1.0    0.09    1.07    1.44    23.50249    45.13740   -27.15127
   235  H   1.0    0.11    1.07    1.44    23.15975    38.85324   -29.77586
   236  H   1.0    0.13    1.08    1.44    26.33395    38.34131   -28.84830
   237  H   1.0    0.10    1.03    1.43    27.66543    44.24061   -26.61808
   238  H   1.0    0.12    1.04    1.43    28.77932    41.31223   -27.52420
   239  N   5.0   -0.18    3.20    1.96    15.32144    39.99464   -14.48287
   240  C   4.0    0.04    4.20    4.00    16.76298    42.04858   -13.45843
   241  C   4.0    0.10    3.26    3.05    15.59107    44.58495   -13.87661
   242  O   6.0   -0.25    1.11    1.80    15.24760    46.19239   -12.20298
   243  C   4.0   -0.03    4.27    4.14    19.50686    42.07258   -14.56151
   244  C   4.0   -0.01    3.51    3.12    20.99704    44.50451   -13.95690
   245  C   4.0   -0.03    3.51    3.12    21.96495    45.06361   -11.58018
   246  C   4.0   -0.03    3.44    3.09    21.45440    46.26485   -15.83483
   247  C   4.0   -0.02    3.34    3.06    23.24060    47.23795   -10.87986
   248  C   4.0   -0.02    3.39    3.08    22.69934    48.51787   -15.19797
   249  C   4.0   -0.01    3.38    3.07    23.48799    49.03466   -12.74539
   250  H   1.0    0.12    1.05    1.44    16.06707    38.95330   -15.91828
   251  H   1.0    0.05    1.05    1.44    16.87956    41.84230   -11.39205
   252  H   1.0    0.04    1.02    1.43    20.49410    40.42292   -13.83590
   253  H   1.0    0.06    1.03    1.43    19.33679    41.91867   -16.60773
   254  H   1.0    0.05    1.03    1.43    21.68045    43.63259   -10.13204
   255  H   1.0    0.06    1.03    1.43    20.78163    45.98106   -17.73719
   256  H   1.0    0.07    1.03    1.43    23.98523    47.47858    -9.00688
   257  H   1.0    0.07    1.03    1.43    22.94963    49.93583   -16.63950
   258  H   1.0    0.07    1.03    1.43    24.35227    50.82662   -12.37136
   259  N   5.0   -0.19    3.19    1.95    45.98790    15.32144   -14.48287
   260  C   4.0    0.04    4.20    3.99    43.93395    16.76298   -13.45843
   261  C   4.0    0.09    3.26    3.05    41.39758    15.59107   -13.87661
   262  O   6.0   -0.30    1.16    1.80    39.79014    15.24760   -12.20298
   263  C   4.0   -0.04    4.27    4.14    43.90995    19.50686   -14.56151
   264  C   4.0   -0.01    3.51    3.12    41.47803    20.99704   -13.95690
   265  C   4.0   -0.03    3.51    3.12    40.91892    21.96495   -11.58018
   266  C   4.0   -0.03    3.44    3.09    39.71768    21.45440   -15.83483
   267  C   4.0   -0.05    3.34    3.06    38.74458    23.24060   -10.87986
   268  C   4.0   -0.04    3.39    3.08    37.46466    22.69934   -15.19797
   269  C   4.0   -0.04    3.39    3.08    36.94787    23.48799   -12.74539
   270  H   1.0    0.09    1.02    1.43    47.02923    16.06707   -15.91828
   271  H   1.0    0.06    1.05    1.44    44.14023    16.87956   -11.39205
   272  H   1.0    0.04    1.02    1.43    45.55961    20.49410   -13.83590
   273  H   1.0    0.05    1.03    1.43    44.06386    19.33679   -16.60773
   274  H   1.0    0.05    1.03    1.43    42.34994    21.68045   -10.13204
   275  H   1.0    0.06    1.03    1.43    40.00147    20.78163   -17.73719
   276  H   1.0    0.05    1.03    1.43    38.50395    23.98523    -9.00688
   277  H   1.0    0.05    1.03    1.43    36.04670    22.94963   -16.63950
   278  H   1.0    0.05    1.07    1.44    35.15591    24.35227   -12.37136
   279  N   5.0   -0.19    3.19    1.95    36.54424    13.27482    -8.45668
   280  C   4.0    0.03    4.21    4.03    34.01076    14.49205    -8.40819
   281  C   4.0    0.09    3.19    3.04    31.95429    12.40793    -8.34143
   282  O   6.0   -0.30    1.15    1.80    30.09712    12.59383    -6.89695
   283  H   1.0    0.12    1.06    1.44    37.63423    13.56950   -10.00156
   284  H   1.0    0.05    1.05    1.44    33.83457    15.55004    -6.64338
   285  C   4.0   -0.04    4.30    4.21    33.74340    16.14184   -10.73486
   286  C   4.0   -0.04    4.24    4.08    31.27104    17.60008   -10.60095
   287  C   4.0    0.00    4.24    4.09    29.56561    16.87618   -12.74997
   288  N   5.0   -0.14    3.45    2.05    30.79038    17.51995   -15.10920
   289  C   4.0    0.09    3.37    3.07    30.87816    16.00384   -17.12646
   290  N   5.0   -0.17    3.22    1.96    31.18999    13.50856   -16.90957
   291  N   5.0   -0.17    3.23    1.96    30.54423    17.11286   -19.37805
   292  H   1.0    0.05    1.03    1.43    35.36698    17.40960   -10.80955
   293  H   1.0    0.06    1.04    1.43    33.81998    14.94117   -12.40831
   294  H   1.0    0.06    1.04    1.43    30.29670    17.23078    -8.82457
   295  H   1.0    0.04    1.03    1.43    31.63824    19.61934   -10.72994
   296  H   1.0    0.06    1.03    1.43    29.17222    14.85835   -12.69405
   297  H   1.0    0.06    1.02    1.43    27.74239    17.84331   -12.59805
   298  H   1.0    0.08    1.08    1.44    30.73601    19.38960   -15.50885
   299  H   1.0    0.09    1.03    1.43    30.90509    12.58557   -15.27462
   300  H   1.0    0.10    1.03    1.43    31.37930    12.49144   -18.50669
   301  H   1.0    0.09    1.04    1.43    31.07402    18.94810   -19.47338
   302  H   1.0    0.09    1.02    1.43    31.32668    16.06413   -20.85811
   303  N   5.0   -0.19    3.16    1.95    27.05645    11.40474    -2.56604
   304  C   4.0    0.04    4.19    3.98    24.32917    11.48052    -2.98739
   305  C   4.0    0.10    3.24    3.04    22.99005     9.09641    -2.10260
   306  O   6.0   -0.23    1.11    1.80    20.85062     9.09548    -1.20061
   307  C   4.0   -0.02    4.27    4.15    23.43208    11.75557    -5.76358
   308  C   4.0   -0.02    4.16    3.93    24.06924    14.30572    -6.91371
   309  C   4.0    0.25    3.09    3.02    23.44579    14.46850    -9.78470
   310  O   6.0   -0.26    1.17    1.80    22.77517    12.46917   -10.89169
   311  O   6.0   -0.30    1.17    1.80    23.71195    16.61443   -10.72771
   312  H   1.0    0.12    1.06    1.44    28.19905    11.60053    -4.10099
   313  H   1.0    0.06    1.05    1.44    23.53788    13.04028    -1.86403
   314  H   1.0    0.07    1.03    1.43    24.31554    10.26128    -6.88161
   315  H   1.0    0.07    1.04    1.43    21.38837    11.49741    -5.74943
   316  H   1.0    0.06    1.02    1.43    23.05546    15.81362    -5.94059
   317  H   1.0    0.07    1.03    1.43    26.09179    14.68014    -6.73295
   318  H   1.0    0.06    1.04    1.43    27.31781    45.05500    -3.99404
   319  H   1.0    0.10    1.09    1.44    49.42846    28.18104   -14.66518
   320  H   1.0    0.06    1.04    1.43    44.56987    29.53362    -8.87364
   321  H   1.0    0.09    1.07    1.44    41.58851    26.44050    -5.19020
   322  H   1.0    0.07    1.05    1.44    36.43822    26.49114     0.25751
   323  H   1.0    0.10    1.07    1.44    27.89158    37.08661    -0.03100
   324  H   1.0    0.07    1.04    1.43    14.60434    38.99969   -22.32347
   325  H   1.0    0.10    1.08    1.44    15.00012    38.85982   -13.25751
   326  H   1.0    0.08    1.05    1.44    15.01950    45.08815   -15.60611
   327  H   1.0    0.11    1.08    1.44    47.12271    15.00012   -13.25751
   328  H   1.0    0.06    1.05    1.44    40.89438    15.01950   -15.60611
   329  H   1.0    0.10    1.06    1.44    37.46733    13.83257    -7.14162
   330  H   1.0    0.07    1.04    1.43    32.10626    10.89431    -9.46256
   331  H   1.0    0.11    1.07    1.44    27.50310    12.66194    -1.51129
   332  H   1.0    0.08    1.05    1.44    23.85320     7.42107    -2.24137

  Z AO/shell   Hii/eV     exponent
  1     Wed Apr 25 08:07:45 CEST 2018   EN: 2.200 GM2: 0.406  GM3: 0.0800  RAES: 1.40
     1s    -10.707211    1.230000
  6     Wed Apr 25 08:07:45 CEST 2018   EN: 2.550 GM2: 0.538  GM3: 0.1500  RAES: 3.00
     2s    -13.970922    2.096432
     2p    -10.063292    1.800000
  7     Wed Apr 25 08:07:45 CEST 2018   EN: 3.040 GM2: 0.461  GM3:-0.0640  RAES: 1.90
     2s    -16.686243    2.339881
     2p    -12.523956    2.014332
  8     Wed Apr 25 08:07:45 CEST 2018   EN: 3.440 GM2: 0.452  GM3:-0.0517  RAES: 1.80
     2s    -20.229985    2.439742
     2p    -15.503117    2.137023
 no old-style atom pair restraining (fixing) potential

molecular fragmentation (1/2 indicates fragments):
111111111111111111111111111111111111111111111111111111111111111111111111
222222222222222222222222222222222222222222222222222222222222222222222222
222222222222222222222222222222222222222222222222222222222222222222222222
222222222222222222222222222222222222222222222222222222222222222222222222
22222222222222222222222222222122222222222222
# atoms in fragment 1/2:    73   259
 fragment masses (1/2) :      542.59     1683.01
CMA distance (Bohr)    :   7.394
constraining FC (au)   :  0.0500
           ------------------------------------------------- 
          |        Self-Consistent Charge Iterations        |
           ------------------------------------------------- 

 Ncao       : 797
 Nao        : 797
 Nshell     : 487
 Nel        : 888
 T(el)      :   500.0
 intcut     :    35.0
 scfconv/Eh :  0.100E-06
   qconv/e  :  0.100E-04
 intneglect :  0.100E-08
 broydamp   :      0.400
 iter      E             dE          RMSdq      gap      omega  full diag
   1   -511.5002864 -0.511500E+03  0.484E+00    3.03       0.0  T
   2   -512.6053382 -0.110505E+01  0.234E+00    1.56       1.0  T
   3   -512.6751377 -0.697995E-01  0.125E+00    1.62       1.0  T
   4   -512.7790205 -0.103883E+00  0.300E-01    0.74       1.0  T
   5   -512.7834123 -0.439182E-02  0.141E-01    0.87       1.0  T
   6   -512.7853235 -0.191115E-02  0.575E-02    0.83       1.0  T
   7   -512.7855486 -0.225176E-03  0.300E-02    0.82       1.0  T
   8   -512.7855987 -0.501085E-04  0.144E-02    0.83       1.0  T
   9   -512.7856201 -0.213957E-04  0.631E-03    0.83       1.0  T
  10   -512.7856231 -0.294259E-05  0.304E-03    0.83       1.8  T
  11   -512.7856237 -0.617891E-06  0.133E-03    0.83       4.1  T
  12   -512.7856238 -0.149146E-06  0.555E-04    0.83       9.9  T
  13   -512.7856239 -0.290444E-07  0.262E-04    0.83      21.0  T
  14   -512.7856239 -0.317152E-08  0.110E-04    0.83      49.7  T
  15   -512.7856239 -0.114505E-08  0.417E-05    0.83     131.5  T
  16   -512.7856239 -0.113687E-09  0.189E-05    0.83     290.8  T
speedup 11.97
cpu  time for SCC   14.54 s
wall time for SCC    1.21 s

   *** convergence criteria satisfied after 16 iterations ***

          eigenvalues
 #    :         432        433        434        435        436        437        438        439
 occ. :        2.000      2.000      2.000      2.000      2.000      2.000      2.000      2.000
 eps  :       -10.484    -10.223    -10.189    -10.173    -10.102     -9.997     -9.940     -9.892
 #    :         440        441        442        443        444        445        446        447
 occ. :        2.000      2.000      2.000      2.000      2.000      0.000      0.000      0.000
 eps  :        -9.762     -9.708     -9.688     -9.638     -9.483     -8.657     -7.949     -7.865
 #    :         448        449        450        451        452        453        454        455
 occ. :        0.000      0.000      0.000      0.000      0.000      0.000      0.000      0.000
 eps  :        -7.845     -7.731     -7.616     -7.586     -7.527     -6.820     -6.490     -6.282


   #   Z            q   n(s)   n(p)   n(d)      C6AA      α(0)
   1   7 N     -0.184  1.252  3.932  0.000    24.984     7.424
   2   6 C     -0.027  1.084  2.943  0.000    21.076     6.540
   3   6 C      0.262  1.035  2.702  0.000    22.577     7.781
   4   8 O     -0.475  1.727  4.747  0.000    23.235     6.463
   5   6 C     -0.077  1.055  3.022  0.000    21.972     6.674
   6   6 C     -0.104  1.066  3.038  0.000    22.489     6.753
   7   6 C      0.364  1.030  2.607  0.000    20.831     7.469
   8   8 O     -0.607  1.741  4.866  0.000    26.302     6.876
   9   8 O     -0.660  1.796  4.864  0.000    27.645     7.049
  10   1 H      0.285  0.715  0.000  0.000     0.759     1.365
  11   1 H      0.323  0.677  0.000  0.000     0.649     1.263
  12   1 H      0.288  0.712  0.000  0.000     0.752     1.358
  13   1 H      0.118  0.882  0.000  0.000     1.628     1.995
  14   1 H      0.083  0.917  0.000  0.000     1.948     2.183
  15   1 H      0.080  0.920  0.000  0.000     1.984     2.203
  16   1 H      0.022  0.978  0.000  0.000     2.700     2.570
  17   1 H      0.032  0.968  0.000  0.000     2.555     2.500
  18   7 N     -0.132  1.232  3.899  0.000    23.854     7.254
  19   6 C      0.004  1.064  2.932  0.000    20.521     6.450
  20   6 C      0.269  1.049  2.682  0.000    22.460     7.761
  21   8 O     -0.496  1.753  4.743  0.000    23.691     6.526
  22   1 H      0.233  0.767  0.000  0.000     0.951     1.528
  23   1 H      0.098  0.902  0.000  0.000     1.801     2.099
  24   6 C     -0.095  1.057  3.038  0.000    22.307     6.722
  25   6 C     -0.001  1.072  2.929  0.000    28.055     8.688
  26   6 C     -0.049  1.079  2.970  0.000    29.210     8.864
  27   6 C     -0.059  1.084  2.975  0.000    29.463     8.902
  28   6 C     -0.053  1.075  2.978  0.000    29.328     8.881
  29   6 C     -0.077  1.076  3.000  0.000    29.919     8.970
  30   6 C      0.148  1.044  2.808  0.000    24.786     8.159
  31   8 O     -0.426  1.712  4.713  0.000    21.354     6.238
  32   1 H      0.107  0.893  0.000  0.000     1.723     2.053
  33   1 H      0.065  0.935  0.000  0.000     2.137     2.286
  34   1 H      0.038  0.962  0.000  0.000     2.482     2.464
  35   1 H      0.073  0.927  0.000  0.000     2.056     2.242
  36   1 H      0.039  0.961  0.000  0.000     2.463     2.454
  37   1 H      0.055  0.945  0.000  0.000     2.253     2.347
  38   1 H      0.318  0.682  0.000  0.000     0.668     1.284
  39   7 N     -0.185  1.255  3.930  0.000    25.019     7.429
  40   6 C      0.027  1.060  2.913  0.000    20.123     6.388
  41   6 C      0.258  1.052  2.689  0.000    22.650     7.794
  42   8 O     -0.491  1.738  4.754  0.000    23.594     6.512
  43   6 C     -0.063  1.048  3.015  0.000    21.699     6.629
  44   6 C      0.014  1.078  2.909  0.000    27.701     8.633
  45   6 C     -0.039  1.081  2.958  0.000    28.962     8.825
  46   6 C     -0.040  1.082  2.958  0.000    28.999     8.831
  47   6 C     -0.040  1.078  2.961  0.000    28.991     8.830
  48   6 C     -0.035  1.078  2.957  0.000    28.876     8.812
  49   6 C     -0.042  1.078  2.964  0.000    29.039     8.837
  50   1 H      0.239  0.761  0.000  0.000     0.926     1.507
  51   1 H      0.080  0.920  0.000  0.000     1.979     2.200
  52   1 H      0.045  0.955  0.000  0.000     2.385     2.415
  53   1 H      0.042  0.958  0.000  0.000     2.427     2.436
  54   1 H      0.041  0.959  0.000  0.000     2.431     2.438
  55   1 H      0.024  0.976  0.000  0.000     2.671     2.556
  56   1 H      0.064  0.936  0.000  0.000     2.158     2.297
  57   1 H      0.028  0.972  0.000  0.000     2.611     2.527
  58   1 H      0.058  0.942  0.000  0.000     2.222     2.331
  59   7 N     -0.154  1.227  3.928  0.000    24.340     7.327
  60   6 C      0.031  1.046  2.923  0.000    20.056     6.376
  61   6 C      0.190  1.095  2.715  0.000    23.931     8.012
  62   8 O     -0.360  1.761  4.599  0.000    20.908     6.131
  63   1 H      0.222  0.778  0.000  0.000     1.002     1.568
  64   1 H      0.104  0.896  0.000  0.000     1.747     2.067
  65   6 C      0.119  1.040  2.841  0.000    18.692     6.166
  66   8 O     -0.476  1.724  4.752  0.000    22.373     6.385
  67   6 C     -0.144  1.039  3.104  0.000    23.324     6.885
  68   1 H      0.046  0.954  0.000  0.000     2.374     2.410
  69   1 H      0.348  0.652  0.000  0.000     0.594     1.211
  70   1 H      0.073  0.927  0.000  0.000     2.054     2.241
  71   1 H      0.054  0.946  0.000  0.000     2.266     2.354
  72   1 H      0.056  0.944  0.000  0.000     2.247     2.344
  73   8 O     -0.622  1.748  4.874  0.000    25.717     6.844
  74   1 H      0.312  0.688  0.000  0.000     0.686     1.301
  75   1 H      0.326  0.674  0.000  0.000     0.649     1.265
  76   8 O     -0.632  1.752  4.880  0.000    25.967     6.878
  77   1 H      0.319  0.681  0.000  0.000     0.667     1.283
  78   1 H      0.308  0.692  0.000  0.000     0.698     1.312
  79   8 O     -0.614  1.738  4.875  0.000    25.513     6.817
  80   1 H      0.322  0.678  0.000  0.000     0.658     1.274
  81   1 H      0.307  0.693  0.000  0.000     0.701     1.315
  82   8 O     -0.616  1.742  4.873  0.000    25.566     6.824
  83   1 H      0.347  0.653  0.000  0.000     0.596     1.212
  84   1 H      0.356  0.644  0.000  0.000     0.575     1.191
  85   8 O     -0.631  1.761  4.870  0.000    25.938     6.874
  86   1 H      0.312  0.688  0.000  0.000     0.685     1.301
  87   1 H      0.297  0.703  0.000  0.000     0.729     1.341
  88   8 O     -0.623  1.762  4.860  0.000    25.733     6.846
  89   1 H      0.305  0.695  0.000  0.000     0.707     1.321
  90   1 H      0.318  0.682  0.000  0.000     0.669     1.285
  91   8 O     -0.608  1.750  4.858  0.000    25.370     6.798
  92   1 H      0.304  0.696  0.000  0.000     0.709     1.323
  93   1 H      0.306  0.694  0.000  0.000     0.703     1.317
  94   8 O     -0.627  1.757  4.870  0.000    25.839     6.861
  95   1 H      0.336  0.664  0.000  0.000     0.622     1.238
  96   1 H      0.329  0.671  0.000  0.000     0.639     1.256
  97   8 O     -0.621  1.765  4.856  0.000    25.695     6.841
  98   1 H      0.319  0.681  0.000  0.000     0.668     1.283
  99   1 H      0.300  0.700  0.000  0.000     0.721     1.334
 100   8 O     -0.612  1.741  4.871  0.000    25.463     6.811
 101   1 H      0.336  0.664  0.000  0.000     0.623     1.240
 102   1 H      0.295  0.705  0.000  0.000     0.735     1.347
 103   8 O     -0.642  1.776  4.866  0.000    26.214     6.910
 104   1 H      0.327  0.673  0.000  0.000     0.645     1.262
 105   1 H      0.315  0.685  0.000  0.000     0.678     1.293
 106   8 O     -0.651  1.773  4.878  0.000    26.440     6.940
 107   1 H      0.325  0.675  0.000  0.000     0.650     1.267
 108   1 H      0.328  0.672  0.000  0.000     0.641     1.258
 109   7 N     -0.391  1.321  4.070  0.000    30.134     8.153
 110   6 C      0.041  1.060  2.899  0.000    19.909     6.356
 111   6 C      0.197  1.089  2.714  0.000    23.806     7.991
 112   8 O     -0.388  1.771  4.617  0.000    21.440     6.208
 113   6 C     -0.062  1.050  3.012  0.000    21.666     6.624
 114   6 C      0.014  1.077  2.909  0.000    27.702     8.633
 115   6 C     -0.041  1.077  2.964  0.000    29.009     8.832
 116   6 C     -0.043  1.084  2.959  0.000    29.065     8.841
 117   6 C     -0.033  1.078  2.954  0.000    28.815     8.803
 118   6 C     -0.033  1.081  2.952  0.000    28.817     8.803
 119   6 C     -0.034  1.078  2.956  0.000    28.846     8.808
 120   1 H      0.156  0.844  0.000  0.000     1.361     1.827
 121   1 H      0.075  0.925  0.000  0.000     2.034     2.230
 122   1 H      0.037  0.963  0.000  0.000     2.484     2.465
 123   1 H      0.060  0.940  0.000  0.000     2.196     2.317
 124   1 H      0.025  0.975  0.000  0.000     2.664     2.552
 125   1 H      0.057  0.943  0.000  0.000     2.238     2.340
 126   1 H      0.024  0.976  0.000  0.000     2.670     2.555
 127   1 H      0.049  0.951  0.000  0.000     2.334     2.389
 128   1 H      0.032  0.968  0.000  0.000     2.555     2.500
 129   7 N     -0.379  1.318  4.062  0.000    29.802     8.108
 130   6 C      0.034  1.053  2.913  0.000    20.012     6.372
 131   6 C      0.216  1.072  2.713  0.000    23.440     7.930
 132   8 O     -0.387  1.752  4.635  0.000    21.422     6.205
 133   6 C     -0.061  1.059  3.002  0.000    21.659     6.623
 134   6 C     -0.009  1.051  2.958  0.000    20.697     6.471
 135   6 C     -0.124  1.039  3.085  0.000    22.911     6.822
 136   6 C     -0.112  1.044  3.068  0.000    22.693     6.791
 137   1 H      0.152  0.848  0.000  0.000     1.387     1.845
 138   1 H      0.070  0.930  0.000  0.000     2.086     2.259
 139   1 H      0.055  0.945  0.000  0.000     2.262     2.352
 140   1 H      0.030  0.970  0.000  0.000     2.582     2.513
 141   1 H      0.010  0.990  0.000  0.000     2.885     2.656
 142   1 H      0.050  0.950  0.000  0.000     2.320     2.382
 143   1 H      0.048  0.952  0.000  0.000     2.341     2.393
 144   1 H      0.058  0.942  0.000  0.000     2.228     2.334
 145   1 H      0.038  0.962  0.000  0.000     2.470     2.457
 146   1 H      0.048  0.952  0.000  0.000     2.339     2.392
 147   1 H      0.024  0.976  0.000  0.000     2.680     2.560
 148   7 N     -0.400  1.327  4.072  0.000    30.362     8.184
 149   6 C      0.028  1.066  2.907  0.000    20.112     6.386
 150   6 C      0.276  1.041  2.683  0.000    22.338     7.739
 151   8 O     -0.499  1.749  4.750  0.000    23.759     6.535
 152   6 C     -0.052  1.046  3.007  0.000    21.498     6.599
 153   6 C     -0.103  1.058  3.045  0.000    22.444     6.742
 154   6 C      0.295  1.031  2.674  0.000    21.998     7.680
 155   8 O     -0.508  1.732  4.776  0.000    23.969     6.564
 156   7 N     -0.273  1.263  4.010  0.000    27.061     7.726
 157   1 H      0.150  0.850  0.000  0.000     1.398     1.852
 158   1 H      0.043  0.957  0.000  0.000     2.416     2.431
 159   1 H      0.036  0.964  0.000  0.000     2.502     2.474
 160   1 H      0.044  0.956  0.000  0.000     2.401     2.423
 161   1 H      0.066  0.934  0.000  0.000     2.131     2.283
 162   1 H      0.059  0.941  0.000  0.000     2.208     2.323
 163   1 H      0.238  0.762  0.000  0.000     0.929     1.510
 164   1 H      0.213  0.787  0.000  0.000     1.042     1.599
 165   7 N     -0.187  1.254  3.934  0.000    25.059     7.435
 166   6 C      0.023  1.062  2.916  0.000    20.196     6.399
 167   6 C      0.268  1.046  2.686  0.000    22.477     7.764
 168   8 O     -0.478  1.728  4.750  0.000    23.299     6.472
 169   6 C     -0.017  1.064  2.953  0.000    20.844     6.494
 170   6 C     -0.063  1.054  3.009  0.000    21.704     6.632
 171   6 C     -0.111  1.040  3.071  0.000    22.686     6.791
 172   6 C     -0.105  1.038  3.067  0.000    22.569     6.776
 173   1 H      0.235  0.765  0.000  0.000     0.945     1.523
 174   1 H      0.058  0.942  0.000  0.000     2.226     2.333
 175   1 H      0.046  0.954  0.000  0.000     2.365     2.405
 176   1 H      0.038  0.962  0.000  0.000     2.475     2.460
 177   1 H      0.032  0.968  0.000  0.000     2.560     2.502
 178   1 H      0.047  0.953  0.000  0.000     2.364     2.404
 179   1 H      0.045  0.955  0.000  0.000     2.383     2.414
 180   1 H      0.041  0.959  0.000  0.000     2.433     2.439
 181   1 H      0.038  0.962  0.000  0.000     2.470     2.457
 182   1 H      0.035  0.965  0.000  0.000     2.514     2.480
 183   1 H      0.035  0.965  0.000  0.000     2.513     2.479
 184   7 N     -0.151  1.241  3.911  0.000    24.276     7.318
 185   6 C      0.004  1.069  2.928  0.000    20.523     6.450
 186   6 C      0.277  1.030  2.693  0.000    22.310     7.736
 187   8 O     -0.497  1.755  4.742  0.000    23.713     6.529
 188   6 C     -0.080  1.058  3.022  0.000    22.031     6.682
 189   6 C     -0.098  1.064  3.034  0.000    22.363     6.733
 190   6 C     -0.028  1.055  2.974  0.000    21.168     6.567
 191   7 N     -0.138  1.215  3.923  0.000    24.000     7.276
 192   6 C      0.226  1.024  2.750  0.000    23.236     7.892
 193   7 N     -0.238  1.246  3.991  0.000    26.222     7.605
 194   7 N     -0.250  1.230  4.020  0.000    26.499     7.645
 195   1 H      0.201  0.799  0.000  0.000     1.101     1.643
 196   1 H      0.095  0.905  0.000  0.000     1.832     2.117
 197   1 H      0.059  0.941  0.000  0.000     2.215     2.327
 198   1 H      0.061  0.939  0.000  0.000     2.182     2.310
 199   1 H      0.090  0.910  0.000  0.000     1.879     2.144
 200   1 H      0.089  0.911  0.000  0.000     1.893     2.152
 201   1 H      0.074  0.926  0.000  0.000     2.037     2.232
 202   1 H      0.075  0.925  0.000  0.000     2.027     2.227
 203   1 H      0.256  0.744  0.000  0.000     0.859     1.452
 204   1 H      0.224  0.776  0.000  0.000     0.992     1.560
 205   1 H      0.224  0.776  0.000  0.000     0.992     1.560
 206   1 H      0.272  0.728  0.000  0.000     0.803     1.403
 207   1 H      0.247  0.753  0.000  0.000     0.894     1.481
 208   7 N     -0.165  1.242  3.923  0.000    24.562     7.361
 209   6 C     -0.050  1.053  2.997  0.000    21.510     6.612
 210   6 C      0.273  1.037  2.690  0.000    22.383     7.747
 211   8 O     -0.499  1.756  4.743  0.000    23.754     6.534
 212   1 H      0.250  0.750  0.000  0.000     0.884     1.473
 213   1 H      0.111  0.889  0.000  0.000     1.685     2.030
 214   1 H      0.105  0.895  0.000  0.000     1.744     2.065
 215   7 N     -0.181  1.257  3.924  0.000    24.930     7.416
 216   6 C      0.024  1.062  2.914  0.000    20.187     6.399
 217   6 C      0.202  1.087  2.711  0.000    23.708     7.974
 218   8 O     -0.376  1.774  4.602  0.000    21.208     6.174
 219   1 H      0.244  0.756  0.000  0.000     0.906     1.491
 220   1 H      0.081  0.919  0.000  0.000     1.967     2.193
 221   6 C     -0.096  1.061  3.035  0.000    22.325     6.726
 222   6 C     -0.079  1.050  3.029  0.000    22.007     6.679
 223   6 C     -0.037  1.052  2.984  0.000    21.308     6.586
 224   7 N     -0.145  1.209  3.936  0.000    24.133     7.296
 225   6 C      0.233  1.020  2.746  0.000    23.108     7.870
 226   7 N     -0.263  1.247  4.016  0.000    26.816     7.691
 227   7 N     -0.267  1.249  4.019  0.000    26.924     7.706
 228   1 H      0.093  0.907  0.000  0.000     1.853     2.128
 229   1 H      0.095  0.905  0.000  0.000     1.830     2.116
 230   1 H      0.056  0.944  0.000  0.000     2.250     2.346
 231   1 H      0.056  0.944  0.000  0.000     2.248     2.345
 232   1 H      0.111  0.889  0.000  0.000     1.689     2.032
 233   1 H      0.082  0.918  0.000  0.000     1.960     2.190
 234   1 H      0.215  0.785  0.000  0.000     1.031     1.591
 235   1 H      0.269  0.731  0.000  0.000     0.815     1.414
 236   1 H      0.259  0.741  0.000  0.000     0.849     1.443
 237   1 H      0.219  0.781  0.000  0.000     1.015     1.578
 238   1 H      0.229  0.771  0.000  0.000     0.971     1.543
 239   7 N     -0.392  1.309  4.084  0.000    30.159     8.156
 240   6 C      0.057  1.046  2.897  0.000    19.643     6.314
 241   6 C      0.205  1.090  2.705  0.000    23.647     7.964
 242   8 O     -0.410  1.772  4.638  0.000    21.891     6.273
 243   6 C     -0.072  1.066  3.006  0.000    21.872     6.658
 244   6 C      0.005  1.090  2.905  0.000    27.902     8.664
 245   6 C     -0.037  1.078  2.958  0.000    28.912     8.819
 246   6 C     -0.043  1.087  2.956  0.000    29.062     8.841
 247   6 C     -0.034  1.077  2.958  0.000    28.853     8.808
 248   6 C     -0.037  1.084  2.953  0.000    28.931     8.820
 249   6 C     -0.034  1.078  2.956  0.000    28.853     8.809
 250   1 H      0.192  0.808  0.000  0.000     1.146     1.677
 251   1 H      0.032  0.968  0.000  0.000     2.552     2.498
 252   1 H      0.063  0.937  0.000  0.000     2.163     2.300
 253   1 H      0.071  0.929  0.000  0.000     2.079     2.255
 254   1 H      0.019  0.981  0.000  0.000     2.745     2.591
 255   1 H      0.045  0.955  0.000  0.000     2.378     2.411
 256   1 H      0.032  0.968  0.000  0.000     2.554     2.499
 257   1 H      0.040  0.960  0.000  0.000     2.450     2.448
 258   1 H      0.031  0.969  0.000  0.000     2.573     2.509
 259   7 N     -0.388  1.308  4.080  0.000    30.030     8.139
 260   6 C      0.049  1.047  2.904  0.000    19.770     6.334
 261   6 C      0.197  1.093  2.710  0.000    23.794     7.989
 262   8 O     -0.379  1.755  4.624  0.000    21.268     6.183
 263   6 C     -0.072  1.066  3.007  0.000    21.883     6.660
 264   6 C      0.000  1.088  2.912  0.000    28.024     8.683
 265   6 C     -0.035  1.077  2.958  0.000    28.861     8.811
 266   6 C     -0.046  1.088  2.958  0.000    29.132     8.851
 267   6 C     -0.038  1.077  2.961  0.000    28.934     8.820
 268   6 C     -0.045  1.088  2.957  0.000    29.110     8.848
 269   6 C     -0.053  1.085  2.968  0.000    29.315     8.880
 270   1 H      0.171  0.829  0.000  0.000     1.269     1.764
 271   1 H      0.038  0.962  0.000  0.000     2.471     2.458
 272   1 H      0.042  0.958  0.000  0.000     2.417     2.431
 273   1 H      0.059  0.941  0.000  0.000     2.214     2.327
 274   1 H     -0.002  1.002  0.000  0.000     3.101     2.754
 275   1 H      0.048  0.952  0.000  0.000     2.351     2.398
 276   1 H      0.032  0.968  0.000  0.000     2.559     2.502
 277   1 H      0.079  0.921  0.000  0.000     1.984     2.203
 278   1 H      0.082  0.918  0.000  0.000     1.962     2.190
 279   7 N     -0.412  1.326  4.085  0.000    30.705     8.230
 280   6 C      0.040  1.064  2.897  0.000    19.922     6.358
 281   6 C      0.194  1.102  2.704  0.000    23.854     7.998
 282   8 O     -0.398  1.774  4.624  0.000    21.639     6.237
 283   1 H      0.197  0.803  0.000  0.000     1.120     1.658
 284   1 H      0.050  0.950  0.000  0.000     2.316     2.380
 285   6 C     -0.079  1.057  3.022  0.000    22.001     6.677
 286   6 C     -0.084  1.047  3.036  0.000    22.085     6.689
 287   6 C     -0.015  1.048  2.967  0.000    20.921     6.525
 288   7 N     -0.149  1.241  3.908  0.000    24.216     7.309
 289   6 C      0.219  1.026  2.755  0.000    23.370     7.915
 290   7 N     -0.235  1.232  4.002  0.000    26.150     7.595
 291   7 N     -0.259  1.307  3.952  0.000    26.729     7.678
 292   1 H      0.075  0.925  0.000  0.000     2.028     2.227
 293   1 H      0.076  0.924  0.000  0.000     2.026     2.226
 294   1 H      0.051  0.949  0.000  0.000     2.311     2.377
 295   1 H      0.080  0.920  0.000  0.000     1.976     2.198
 296   1 H      0.053  0.947  0.000  0.000     2.288     2.365
 297   1 H      0.093  0.907  0.000  0.000     1.848     2.126
 298   1 H      0.249  0.751  0.000  0.000     0.888     1.476
 299   1 H      0.227  0.773  0.000  0.000     0.979     1.550
 300   1 H      0.262  0.738  0.000  0.000     0.840     1.436
 301   1 H      0.262  0.738  0.000  0.000     0.837     1.433
 302   1 H      0.258  0.742  0.000  0.000     0.853     1.447
 303   7 N     -0.404  1.322  4.082  0.000    30.490     8.201
 304   6 C      0.042  1.058  2.899  0.000    19.883     6.352
 305   6 C      0.198  1.092  2.709  0.000    23.772     7.986
 306   8 O     -0.412  1.762  4.650  0.000    21.927     6.278
 307   6 C     -0.040  1.052  2.988  0.000    21.284     6.566
 308   6 C     -0.092  1.066  3.026  0.000    22.252     6.717
 309   6 C      0.360  1.029  2.611  0.000    20.892     7.480
 310   8 O     -0.651  1.784  4.867  0.000    27.394     7.017
 311   8 O     -0.601  1.745  4.856  0.000    26.141     6.855
 312   1 H      0.192  0.808  0.000  0.000     1.148     1.678
 313   1 H      0.037  0.963  0.000  0.000     2.494     2.470
 314   1 H      0.042  0.958  0.000  0.000     2.416     2.431
 315   1 H      0.019  0.981  0.000  0.000     2.744     2.590
 316   1 H      0.016  0.984  0.000  0.000     2.796     2.615
 317   1 H      0.048  0.952  0.000  0.000     2.344     2.394
 318   1 H      0.091  0.909  0.000  0.000     1.871     2.139
 319   1 H      0.179  0.821  0.000  0.000     1.220     1.730
 320   1 H      0.078  0.922  0.000  0.000     2.000     2.211
 321   1 H      0.182  0.818  0.000  0.000     1.200     1.716
 322   1 H      0.055  0.945  0.000  0.000     2.256     2.349
 323   1 H      0.182  0.818  0.000  0.000     1.201     1.717
 324   1 H      0.083  0.917  0.000  0.000     1.947     2.182
 325   1 H      0.177  0.823  0.000  0.000     1.233     1.739
 326   1 H      0.073  0.927  0.000  0.000     2.056     2.242
 327   1 H      0.178  0.822  0.000  0.000     1.223     1.732
 328   1 H      0.087  0.913  0.000  0.000     1.909     2.160
 329   1 H      0.163  0.837  0.000  0.000     1.314     1.795
 330   1 H      0.078  0.922  0.000  0.000     2.000     2.211
 331   1 H      0.177  0.823  0.000  0.000     1.229     1.736
 332   1 H      0.065  0.935  0.000  0.000     2.144     2.290

 Mol. C6AA /au·bohr⁶  :     979388.608842
 Mol. C8AA /au·bohr⁸  :   21683672.207464
 Mol. α(0) /au        :       1495.821250

 
 Wiberg/Mayer (AO) data. WBOs > 0.1 written file <wbo>
 largest (>0.05) Wiberg bond orders for each atom
           total WBO             WBO to atom ...
     1  N   3.622    C    2 0.966    H   10 0.899    H   12 0.880    H   11 0.773
     2  C   3.945    C    5 0.982    N    1 0.966    H   13 0.954    C    3 0.933    O    4 0.056
     3  C   3.953    O    4 1.582    N   18 1.364    C    2 0.933
     4  O   1.978    C    3 1.582    N   18 0.200    C    2 0.056
     5  C   3.983    C    6 1.010    C    2 0.982    H   15 0.969    H   14 0.961
     6  C   3.988    C    5 1.010    H   17 0.974    H   16 0.967    C    7 0.906    O    9 0.056    O    8 0.054
     7  C   3.928    O    9 1.514    O    8 1.476    C    6 0.906
     8  O   1.831    C    7 1.476    O    9 0.213    C    6 0.054
     9  O   1.805    C    7 1.514    O    8 0.213    C    6 0.056
    10  H   0.918    N    1 0.899
    11  H   0.896    N    1 0.773    O   82 0.115
    12  H   0.917    N    1 0.880
    13  H   0.986    C    2 0.954
    14  H   0.992    C    5 0.961
    15  H   0.994    C    5 0.969
    16  H   0.999    C    6 0.967
    17  H   0.999    C    6 0.974
    18  N   3.531    C    3 1.364    C   19 0.989    H   22 0.897    O    4 0.200
    19  C   3.963    N   18 0.989    C   24 0.960    H   23 0.944    C   20 0.932    O   21 0.054
    20  C   3.942    O   21 1.631    N   39 1.298    C   19 0.932
    21  O   1.948    C   20 1.631    N   39 0.198    C   19 0.054
    22  H   0.945    N   18 0.897
    23  H   0.990    C   19 0.944
    24  C   3.980    C   25 1.013    C   19 0.960    H   32 0.952    H   33 0.945
    25  C   3.986    C   27 1.413    C   26 1.390    C   24 1.013    C   30 0.096
    26  C   3.990    C   28 1.466    C   25 1.390    H   34 0.959    C   29 0.103
    27  C   3.985    C   29 1.440    C   25 1.413    H   35 0.944    C   28 0.107
    28  C   3.989    C   26 1.466    C   30 1.358    H   36 0.965    C   27 0.107
    29  C   3.983    C   27 1.440    C   30 1.380    H   37 0.951    C   26 0.103    O   31 0.057
    30  C   3.934    C   29 1.380    C   28 1.358    O   31 1.060    C   25 0.096
    31  O   2.082    C   30 1.060    H   38 0.869    C   29 0.057
    32  H   0.988    C   24 0.952
    33  H   0.994    C   24 0.945
    34  H   0.998    C   26 0.959
    35  H   0.995    C   27 0.944
    36  H   0.998    C   28 0.965
    37  H   0.996    C   29 0.951
    38  H   0.898    O   31 0.869
    39  N   3.463    C   20 1.298    C   40 0.991    H   50 0.878    O   21 0.198
    40  C   3.974    N   39 0.991    C   43 0.954    H   51 0.952    C   41 0.947
    41  C   3.942    O   42 1.592    N   59 1.310    C   40 0.947
    42  O   1.954    C   41 1.592    N   59 0.186
    43  C   3.989    C   44 1.011    H   52 0.966    H   53 0.965    C   40 0.954
    44  C   3.987    C   46 1.427    C   45 1.395    C   43 1.011    C   49 0.108
    45  C   3.990    C   47 1.460    C   44 1.395    H   54 0.967    C   48 0.110
    46  C   3.990    C   48 1.427    C   44 1.427    H   55 0.970    C   47 0.112
    47  C   3.989    C   45 1.460    C   49 1.419    H   56 0.962    C   46 0.112
    48  C   3.992    C   49 1.457    C   46 1.427    H   57 0.970    C   45 0.110
    49  C   3.989    C   48 1.457    C   47 1.419    H   58 0.963    C   44 0.108
    50  H   0.943    N   39 0.878
    51  H   0.993    C   40 0.952
    52  H   0.998    C   43 0.966
    53  H   0.997    C   43 0.965
    54  H   0.998    C   45 0.967
    55  H   0.999    C   46 0.970
    56  H   0.996    C   47 0.962
    57  H   0.999    C   48 0.970
    58  H   0.996    C   49 0.963
    59  N   3.486    C   41 1.310    C   60 0.997    H   63 0.903    O   42 0.186
    60  C   3.968    N   59 0.997    C   61 0.975    C   65 0.942    H   64 0.939    O   62 0.053
    61  C   3.895    O   62 1.889    C   60 0.975    H  318 0.954
    62  O   2.046    C   61 1.889    C   60 0.053
    63  H   0.950    N   59 0.903
    64  H   0.989    C   60 0.939
    65  C   3.960    C   67 1.001    O   66 0.993    H   68 0.953    C   60 0.942
    66  O   1.936    C   65 0.993    H   69 0.862
    67  C   3.990    C   65 1.001    H   72 0.984    H   71 0.979    H   70 0.979
    68  H   0.998    C   65 0.953
    69  H   0.879    O   66 0.862
    70  H   0.994    C   67 0.979
    71  H   0.997    C   67 0.979
    72  H   0.997    C   67 0.984
    73  O   1.827    H   74 0.900    H   75 0.892
    74  H   0.903    O   73 0.900
    75  H   0.894    O   73 0.892
    76  O   1.803    H   77 0.891    H   78 0.888
    77  H   0.898    O   76 0.891
    78  H   0.905    O   76 0.888
    79  O   1.833    H   81 0.902    H   80 0.891
    80  H   0.896    O   79 0.891
    81  H   0.906    O   79 0.902
    82  O   1.915    H   83 0.877    H   84 0.872    H   11 0.115
    83  H   0.880    O   82 0.877
    84  H   0.874    O   82 0.872
    85  O   1.801    H   87 0.911    H   86 0.872
    86  H   0.903    O   85 0.872
    87  H   0.912    O   85 0.911
    88  O   1.807    H   89 0.906    H   90 0.899
    89  H   0.907    O   88 0.906
    90  H   0.899    O   88 0.899
    91  O   1.817    H   92 0.905    H   93 0.905
    92  H   0.908    O   91 0.905
    93  H   0.906    O   91 0.905
    94  O   1.848    H   95 0.882    H   96 0.881
    95  H   0.887    O   94 0.882
    96  H   0.891    O   94 0.881
    97  O   1.808    H   99 0.909    H   98 0.893
    98  H   0.899    O   97 0.893
    99  H   0.910    O   97 0.909
   100  O   1.840    H  102 0.909    H  101 0.884
   101  H   0.887    O  100 0.884
   102  H   0.913    O  100 0.909
   103  O   1.795    H  105 0.901    H  104 0.891
   104  H   0.893    O  103 0.891
   105  H   0.901    O  103 0.901
   106  O   1.792    H  107 0.894    H  108 0.892
   107  H   0.894    O  106 0.894
   108  H   0.892    O  106 0.892
   109  N   2.994    C  110 1.015    H  120 0.956    H  319 0.949
   110  C   3.984    N  109 1.015    C  111 0.992    H  121 0.948    C  113 0.933    O  112 0.059
   111  C   3.895    O  112 1.876    C  110 0.992    H  320 0.955
   112  O   2.025    C  111 1.876    C  110 0.059
   113  C   3.992    C  114 1.015    H  122 0.968    H  123 0.964    C  110 0.933
   114  C   3.989    C  116 1.422    C  115 1.391    C  113 1.015    C  119 0.108
   115  C   3.992    C  117 1.459    C  114 1.391    H  124 0.968    C  118 0.108
   116  C   3.987    C  118 1.429    C  114 1.422    H  125 0.967    C  117 0.113
   117  C   3.992    C  115 1.459    C  119 1.421    H  126 0.971    C  116 0.113
   118  C   3.991    C  119 1.457    C  116 1.429    H  127 0.969    C  115 0.108
   119  C   3.990    C  118 1.457    C  117 1.421    H  128 0.971    C  114 0.108
   120  H   0.976    N  109 0.956
   121  H   0.994    C  110 0.948
   122  H   0.998    C  113 0.968
   123  H   0.996    C  113 0.964
   124  H   0.999    C  115 0.968
   125  H   0.997    C  116 0.967
   126  H   0.999    C  117 0.971
   127  H   0.997    C  118 0.969
   128  H   0.998    C  119 0.971
   129  N   2.992    C  130 1.005    H  137 0.960    H  321 0.953
   130  C   3.983    N  129 1.005    C  131 1.002    H  138 0.955    C  133 0.939    O  132 0.055
   131  C   3.899    O  132 1.883    C  130 1.002    H  322 0.953
   132  O   2.029    C  131 1.883    C  130 0.055
   133  C   3.992    C  134 1.003    H  140 0.975    H  139 0.967    C  130 0.939
   134  C   3.996    C  135 1.012    C  133 1.003    C  136 0.998    H  141 0.968
   135  C   3.993    C  134 1.012    H  142 0.982    H  144 0.980    H  143 0.978
   136  C   3.996    C  134 0.998    H  147 0.989    H  145 0.986    H  146 0.985
   137  H   0.977    N  129 0.960
   138  H   0.995    C  130 0.955
   139  H   0.997    C  133 0.967
   140  H   0.999    C  133 0.975
   141  H   1.000    C  134 0.968
   142  H   0.997    C  135 0.982
   143  H   0.998    C  135 0.978
   144  H   0.997    C  135 0.980
   145  H   0.998    C  136 0.986
   146  H   0.997    C  136 0.985
   147  H   0.999    C  136 0.989
   148  N   2.989    C  149 1.006    H  157 0.962    H  323 0.956
   149  C   3.981    N  148 1.006    C  152 0.981    H  158 0.960    C  150 0.927    O  151 0.052
   150  C   3.946    O  151 1.638    N  165 1.313    C  149 0.927
   151  O   1.947    C  150 1.638    N  165 0.197    C  149 0.052
   152  C   3.996    C  153 0.998    C  149 0.981    H  160 0.974    H  159 0.973
   153  C   3.994    C  152 0.998    H  162 0.972    C  154 0.956    H  161 0.952    O  155 0.056
   154  C   3.946    O  155 1.616    N  156 1.340    C  153 0.956
   155  O   1.953    C  154 1.616    N  156 0.195    C  153 0.056
   156  N   3.412    C  154 1.340    H  164 0.927    H  163 0.896    O  155 0.195
   157  H   0.977    N  148 0.962
   158  H   0.998    C  149 0.960
   159  H   0.998    C  152 0.973
   160  H   0.998    C  152 0.974
   161  H   0.996    C  153 0.952
   162  H   0.996    C  153 0.972
   163  H   0.943    N  156 0.896
   164  H   0.954    N  156 0.927
   165  N   3.462    C  150 1.313    C  166 0.974    H  173 0.879    O  151 0.197
   166  C   3.967    N  165 0.974    C  169 0.967    H  174 0.958    C  167 0.937
   167  C   3.954    O  168 1.583    N  184 1.342    C  166 0.937
   168  O   1.956    C  167 1.583    N  184 0.196
   169  C   3.992    C  171 1.001    C  170 0.994    C  166 0.967    H  175 0.964
   170  C   3.994    C  172 1.015    C  169 0.994    H  176 0.978    H  177 0.976
   171  C   3.994    C  169 1.001    H  180 0.986    H  179 0.985    H  178 0.977
   172  C   3.995    C  170 1.015    H  182 0.988    H  181 0.987    H  183 0.983
   173  H   0.945    N  165 0.879
   174  H   0.996    C  166 0.958
   175  H   0.998    C  169 0.964
   176  H   0.998    C  170 0.978
   177  H   0.999    C  170 0.976
   178  H   0.997    C  171 0.977
   179  H   0.998    C  171 0.985
   180  H   0.998    C  171 0.986
   181  H   0.998    C  172 0.987
   182  H   0.999    C  172 0.988
   183  H   0.999    C  172 0.983
   184  N   3.501    C  167 1.342    C  185 0.962    H  195 0.927    O  168 0.196
   185  C   3.947    C  188 0.972    N  184 0.962    H  196 0.950    C  186 0.935
   186  C   3.955    O  187 1.633    N  208 1.318    C  185 0.935
   187  O   1.960    C  186 1.633    N  208 0.207
   188  C   3.984    C  189 1.005    H  198 0.974    C  185 0.972    H  197 0.970
   189  C   3.983    C  188 1.005    C  190 1.000    H  199 0.973    H  200 0.971
   190  C   3.959    C  189 1.000    N  191 0.990    H  202 0.966    H  201 0.961
   191  N   3.464    C  192 1.318    C  190 0.990    H  203 0.902    N  194 0.104    N  193 0.096
   192  C   3.975    N  191 1.318    N  194 1.316    N  193 1.307
   193  N   3.390    C  192 1.307    H  205 0.928    H  204 0.916    N  194 0.098    N  191 0.096
   194  N   3.384    C  192 1.316    H  207 0.920    H  206 0.904    N  191 0.104    N  193 0.098
   195  H   0.959    N  184 0.927
   196  H   0.991    C  185 0.950
   197  H   0.996    C  188 0.970
   198  H   0.996    C  188 0.974
   199  H   0.992    C  189 0.973
   200  H   0.992    C  189 0.971
   201  H   0.994    C  190 0.961
   202  H   0.994    C  190 0.966
   203  H   0.934    N  191 0.902
   204  H   0.950    N  193 0.916
   205  H   0.950    N  193 0.928
   206  H   0.926    N  194 0.904
   207  H   0.938    N  194 0.920
   208  N   3.478    C  186 1.318    C  209 0.990    H  212 0.879    O  187 0.207
   209  C   3.960    N  208 0.990    C  210 0.959    H  213 0.957    H  214 0.942
   210  C   3.948    O  211 1.624    N  215 1.296    C  209 0.959
   211  O   1.971    C  210 1.624    N  215 0.200
   212  H   0.938    N  208 0.879
   213  H   0.987    C  209 0.957
   214  H   0.988    C  209 0.942
   215  N   3.460    C  210 1.296    C  216 0.974    H  219 0.887    O  211 0.200
   216  C   3.967    C  217 0.976    N  215 0.974    C  221 0.967    H  220 0.947    O  218 0.054
   217  C   3.892    O  218 1.894    C  216 0.976    H  324 0.954
   218  O   2.033    C  217 1.894    C  216 0.054
   219  H   0.940    N  215 0.887
   220  H   0.993    C  216 0.947
   221  C   3.979    C  222 1.009    C  216 0.967    H  229 0.965    H  228 0.962
   222  C   3.992    C  221 1.009    C  223 0.993    H  231 0.972    H  230 0.971
   223  C   3.950    C  222 0.993    N  224 0.986    H  233 0.968    H  232 0.948
   224  N   3.458    C  225 1.296    C  223 0.986    H  234 0.923    N  226 0.111    N  227 0.089
   225  C   3.975    N  226 1.369    N  224 1.296    N  227 1.275
   226  N   3.411    C  225 1.369    H  236 0.874    H  235 0.858    N  224 0.111    N  227 0.103
   227  N   3.362    C  225 1.275    H  237 0.931    H  238 0.918    N  226 0.103    N  224 0.089
   228  H   0.991    C  221 0.962
   229  H   0.991    C  221 0.965
   230  H   0.996    C  222 0.971
   231  H   0.997    C  222 0.972
   232  H   0.988    C  223 0.948
   233  H   0.993    C  223 0.968
   234  H   0.954    N  224 0.923
   235  H   0.928    N  226 0.858
   236  H   0.933    N  226 0.874
   237  H   0.952    N  227 0.931
   238  H   0.948    N  227 0.918
   239  N   3.002    C  240 1.022    H  325 0.952    H  250 0.922
   240  C   3.987    N  239 1.022    C  241 0.996    H  251 0.956    C  243 0.927
   241  C   3.886    O  242 1.865    C  240 0.996    H  326 0.955
   242  O   2.000    C  241 1.865
   243  C   3.988    C  244 1.000    H  253 0.970    H  252 0.963    C  240 0.927
   244  C   3.986    C  246 1.425    C  245 1.410    C  243 1.000    C  249 0.106
   245  C   3.992    C  247 1.445    C  244 1.410    H  254 0.968    C  248 0.115
   246  C   3.990    C  248 1.431    C  244 1.425    H  255 0.968    C  247 0.112
   247  C   3.992    C  245 1.445    C  249 1.437    H  256 0.970    C  246 0.112
   248  C   3.991    C  249 1.445    C  246 1.431    H  257 0.972    C  245 0.115
   249  C   3.992    C  248 1.445    C  247 1.437    H  258 0.971    C  244 0.106
   250  H   0.963    N  239 0.922
   251  H   0.999    C  240 0.956
   252  H   0.996    C  243 0.963
   253  H   0.995    C  243 0.970
   254  H   1.000    C  245 0.968
   255  H   0.998    C  246 0.968
   256  H   0.999    C  247 0.970
   257  H   0.998    C  248 0.972
   258  H   0.998    C  249 0.971
   259  N   3.002    C  260 1.015    H  327 0.955    H  270 0.950
   260  C   3.984    N  259 1.015    C  261 0.998    H  271 0.962    C  263 0.930
   261  C   3.893    O  262 1.862    C  260 0.998    H  328 0.953
   262  O   2.031    C  261 1.862
   263  C   3.988    C  264 0.997    H  273 0.974    H  272 0.966    C  260 0.930
   264  C   3.985    C  266 1.426    C  265 1.411    C  263 0.997    C  269 0.107
   265  C   3.992    C  267 1.444    C  264 1.411    H  274 0.970    C  268 0.115
   266  C   3.988    C  268 1.430    C  264 1.426    H  275 0.968    C  267 0.112
   267  C   3.991    C  265 1.444    C  269 1.435    H  276 0.967    C  266 0.112
   268  C   3.986    C  269 1.444    C  266 1.430    H  277 0.967    C  265 0.115
   269  C   3.984    C  268 1.444    C  267 1.435    H  278 0.941    C  264 0.107
   270  H   0.971    N  259 0.950
   271  H   0.999    C  260 0.962
   272  H   0.998    C  263 0.966
   273  H   0.996    C  263 0.974
   274  H   1.000    C  265 0.970
   275  H   0.998    C  266 0.968
   276  H   0.999    C  267 0.967
   277  H   0.993    C  268 0.967
   278  H   0.993    C  269 0.941
   279  N   2.984    C  280 0.999    H  329 0.961    H  283 0.921
   280  C   3.980    N  279 0.999    C  281 0.974    C  285 0.970    H  284 0.961    O  282 0.054
   281  C   3.876    O  282 1.856    C  280 0.974    H  330 0.956
   282  O   2.033    C  281 1.856    C  280 0.054
   283  H   0.961    N  279 0.921
   284  H   0.997    C  280 0.961
   285  C   3.986    C  286 1.001    C  280 0.970    H  293 0.967    H  292 0.967
   286  C   3.990    C  287 1.009    C  285 1.001    H  294 0.968    H  295 0.961
   287  C   3.961    C  286 1.009    N  288 0.982    H  296 0.963    H  297 0.951
   288  N   3.454    C  289 1.310    C  287 0.982    H  298 0.906    N  290 0.104    N  291 0.086
   289  C   3.976    N  290 1.341    N  288 1.310    N  291 1.287
   290  N   3.426    C  289 1.341    H  299 0.920    H  300 0.912    N  288 0.104    N  291 0.095
   291  N   3.324    C  289 1.287    H  302 0.906    H  301 0.903    N  290 0.095    N  288 0.086
   292  H   0.994    C  285 0.967
   293  H   0.994    C  285 0.967
   294  H   0.997    C  286 0.968
   295  H   0.993    C  286 0.961
   296  H   0.997    C  287 0.963
   297  H   0.991    C  287 0.951
   298  H   0.938    N  288 0.906
   299  H   0.949    N  290 0.920
   300  H   0.932    N  290 0.912
   301  H   0.931    N  291 0.903
   302  H   0.932    N  291 0.906
   303  N   2.990    C  304 1.022    H  331 0.958    H  312 0.919
   304  C   3.986    N  303 1.022    C  305 0.989    H  313 0.957    C  307 0.936    O  306 0.060
   305  C   3.885    O  306 1.854    C  304 0.989    H  332 0.955
   306  O   2.000    C  305 1.854    C  304 0.060
   307  C   3.989    C  308 1.006    H  315 0.976    H  314 0.975    C  304 0.936
   308  C   3.981    C  307 1.006    H  316 0.972    H  317 0.959    C  309 0.909    O  310 0.050
   309  C   3.939    O  311 1.502    O  310 1.499    C  308 0.909
   310  O   1.790    C  309 1.499    O  311 0.218    C  308 0.050
   311  O   1.806    C  309 1.502    O  310 0.218
   312  H   0.963    N  303 0.919
   313  H   0.999    C  304 0.957
   314  H   0.998    C  307 0.975
   315  H   1.000    C  307 0.976
   316  H   1.000    C  308 0.972
   317  H   0.998    C  308 0.959
   318  H   0.991    C   61 0.954
   319  H   0.968    N  109 0.949
   320  H   0.994    C  111 0.955
   321  H   0.967    N  129 0.953
   322  H   0.997    C  131 0.953
   323  H   0.966    N  148 0.956
   324  H   0.993    C  217 0.954
   325  H   0.969    N  239 0.952
   326  H   0.995    C  241 0.955
   327  H   0.968    N  259 0.955
   328  H   0.992    C  261 0.953
   329  H   0.973    N  279 0.961
   330  H   0.994    C  281 0.956
   331  H   0.969    N  303 0.958
   332  H   0.996    C  305 0.955
 
molecular dipole:
                 x           y           z       tot (Debye)
 q only:       60.237      54.335     -58.215
   full:       62.219      54.467     -55.811     253.578
molecular quadrupole (traceless):
                xx          xy          yy          xz          yz          zz
 q only:      336.391    2342.008     -40.461   -2351.954   -2248.782    -295.930
  q+dip:      487.644    2438.958     -69.772   -2302.269   -2133.043    -417.872
   full:      488.983    2438.811     -66.886   -2299.500   -2133.227    -422.098
speedup 11.97
cpu  time for grad   16.30 s
wall time for grad    1.36 s

SCC energy    :    -512.8029799
rep           :       6.4192692
ES            :       1.8721864
AES           :      -0.1114740
AXC           :       0.1849093
disp          :      -0.3941381
XB            :       0.0000000
fix           :       0.0000000
Gborn         :       0.0000000
Gsasa         :       0.0000000
Ghb           :       0.0000000
Gshift        :       0.0000000
Gsolv         :      -0.6132937     -384.85
Etot ala COSMO:    -512.8029799
grad norm     :       0.6501083
total E       :    -506.3447397
atomizationE  :      89.5979961    56223.59
(atE without considering molecular charge,
 total energy contains solvation terms)
H-L gap (eV)  :          0.8255

------------------------------------------------------------------------
 * finished run on 2019/02/16 at 08:10:46.158     
------------------------------------------------------------------------
 total:
 * wall-time:     0 d,  0 h,  0 min,  1.625 sec
 *  cpu-time:     0 d,  0 h,  0 min, 19.354 sec
 * ratio c/w:    11.912 speedup
 SCF:
 * wall-time:     0 d,  0 h,  0 min,  1.485 sec
 *  cpu-time:     0 d,  0 h,  0 min, 17.778 sec
 * ratio c/w:    11.968 speedup

