      -----------------------------------------------------------      
     |                   =====================                   |     
     |                           x T B                           |     
     |                   =====================                   |     
     |                         S. Grimme                         |     
     |          Mulliken Center for Theoretical Chemistry        |     
     |                    University of Bonn                     |     
     |                 Version 6.0.1 (SAW181210)                 |     
      -----------------------------------------------------------      

   This program is distributed in the hope that it will be useful,
   but WITHOUT ANY WARRANTY; without even the implied warranty of
   MERCHANTABILITY or FITNESS FOR A PARTICULAR PURPOSE.
   
   FOR NON-COMMERCIAL, ACADEMIA USE ONLY.
   
   Cite this work as:
   S. Grimme, C. Bannwarth, P. Shushkov, J. Comput. Theory Chem., 2017,
   13, 1989-2009.
   C. Bannwarth, S. Ehlert and S. Grimme., ChemRxiv, 2018, preprint.
   http://doi.org/10.26434/chemrxiv.7246238.v1
   
   for sTDA-xTB:
   S. Grimme and C. Bannwarth, J. Chem. Phys., 2016, 145, 054103.
   
   in the mass-spec context:
   V. Asgeirsson, C. Bauer and S. Grimme, Chem. Sci., 2017, 8, 4879.
   
   if GBSA is used:
   P. Shushkov, F. März and S. Grimme, unpublished.
   
   for ANC optimizer:
   S. Grimme, unpublished.
   Rational Function algorithm used in ANCopt:
   F. Eckert, P. Pulay, H.-J. Werner, J. Comput. Chem., 1997, 18, 1473.
   
   with help from (in alphabetical order)
   C. Bannwarth, F. Bohle, G. Brandenburg, E. Caldeweyher, M. Checinski,
   S. Dohm, S. Ehlert, S. Ehrlich, F. März, H. Neugebauer, J. Pisarek,
   P. Pracht, P. Shushkov, and S. Spicher.
   
 * started run on 2019/02/22 at 14:19:18.829     
========================================================================
 # omp threads = 12
========================================================================
number of atoms            : 1038
number of electrons        : 2860
charge                     : -5
spin                       : .0
first test random number   : .6152

########################################################################
# WARNING! Please study the warnings concerning your input carefully
#  - Process number higher than OMP_NUM_THREADS, I hope you know what you are doing.
########################################################################

           ------------------------------------------------- 
          |                 G F N 2 - x T B                 |
          | Geometry, Frequencies, Noncovalent interactions |
          |            JCTC 2018 parametrisation            |
           ------------------------------------------------- 
 
      method parameters     
 k(s)        :  1.8500
 k(p)        :  2.2300
 k(d)        :  2.2300
 k(f)        :  2.0000
 kEN (H0ij)  : -2.0000
 D4 a1       :  0.5200
 D4 a2       :  5.0000
 D4 s6       :  1.0000
 D4 s8       :  2.7000
 D4 s9       :  5.0000
 alphaj      :  2.0000

 Solvent             : h2o
 Using internal parameter file: .param_gbsa2_h2o
 Gsolv ref. state (COSMO-RS): gsolv [1 M gas/solution]
 temperature (mdtemp)       :    298.150000000000     
 dielectric constant        :    80.2000000000000     
 rho                        :    1.00000000000000     
 mass                       :    18.0000000000000     
 surface tension            :    15.5689454083859     
 probe radius               :   0.975313790000000     
 vdW radii scaling          :    1.00000000000000     
 Gshift (Eh)                :   1.857443126794793E-003
 c1                         :    1.55243817000000     
 soset                      :   0.130326360000000     
 HB correction              :  T

            Z     q(EN)     CN     RAES       Cart. coordinates
     1  N   5.0   -0.21    3.25    1.97    12.41196     6.21875    31.37384
     2  C   4.0    0.03    4.37    4.33    14.13148     7.96147    30.11089
     3  C   4.0    0.15    3.49    3.11    12.63125    10.30458    29.23533
     4  O   6.0   -0.30    1.25    1.80    10.35580    10.20079    28.80822
     5  C   4.0   -0.04    4.17    3.94    15.67027     6.73584    27.99978
     6  S   6.0   -0.03    2.47    3.10    13.91923     5.59004    25.27945
     7  H   1.0    0.12    1.08    1.44    10.76541     6.07592    30.67598
     8  H   1.0    0.04    1.06    1.44    15.40551     8.65851    31.57834
     9  H   1.0    0.05    1.09    1.44    17.02959     8.06818    27.26922
    10  H   1.0    0.04    1.10    1.44    16.48448     5.00948    28.69691
    11  N   5.0   -0.15    3.47    2.06    14.00502    12.41901    29.12619
    12  C   4.0    0.04    4.34    4.28    12.93197    14.86989    28.62833
    13  C   4.0    0.16    3.39    3.08    13.30757    15.67015    25.82441
    14  O   6.0   -0.32    1.29    1.80    15.15415    15.05745    24.60318
    15  C   4.0   -0.07    4.18    3.95    14.17271    16.83210    30.30683
    16  H   1.0    0.08    1.11    1.45    15.72980    12.23379    29.41958
    17  H   1.0    0.06    1.06    1.44    10.89630    14.71979    29.00437
    18  H   1.0    0.05    1.05    1.44    16.09451    16.73803    29.99429
    19  H   1.0    0.04    1.01    1.43    13.65252    16.58013    32.24963
    20  H   1.0    0.05    1.03    1.43    13.66652    18.65394    29.87204
    21  N   5.0   -0.14    3.50    2.08    11.52474    17.22339    24.95805
    22  C   4.0    0.03    4.44    4.44    11.53085    18.21747    22.38662
    23  C   4.0    0.15    3.41    3.08    12.49571    20.97681    22.39223
    24  O   6.0   -0.31    1.30    1.80    13.16590    22.06378    24.28319
    25  C   4.0   -0.03    4.36    4.32     8.92487    17.89218    21.22285
    26  C   4.0   -0.01    3.56    3.14     8.26123    15.19862    20.91556
    27  C   4.0   -0.04    3.44    3.09     9.36207    13.83247    18.96396
    28  C   4.0   -0.03    3.43    3.09     6.75655    13.89607    22.70847
    29  C   4.0   -0.04    3.32    3.06     8.82257    11.29559    18.60317
    30  C   4.0   -0.03    3.33    3.06     6.27162    11.30930    22.43640
    31  C   4.0   -0.04    3.35    3.06     7.19521    10.04478    20.30612
    32  H   1.0    0.10    1.10    1.44    10.18486    17.69909    26.05636
    33  H   1.0    0.05    1.08    1.44    12.90843    17.19258    21.31407
    34  H   1.0    0.06    1.06    1.44     7.67523    18.91015    22.39973
    35  H   1.0    0.05    1.04    1.43     8.87752    18.76477    19.36940
    36  H   1.0    0.05    1.00    1.43    10.53842    14.89141    17.55712
    37  H   1.0    0.06    1.03    1.43     6.02352    14.97218    24.26904
    38  H   1.0    0.04    1.00    1.43     9.75523    10.30532    16.99753
    39  H   1.0    0.05    1.03    1.43     5.02511    10.36989    23.74644
    40  H   1.0    0.05    1.02    1.43     6.75751     8.06224    20.08004
    41  N   5.0   -0.15    3.48    2.06    12.69240    22.12384    20.09970
    42  C   4.0    0.04    4.36    4.31    13.73490    24.66701    19.91909
    43  C   4.0    0.09    3.29    3.05    12.20729    26.49150    21.53450
    44  O   6.0   -0.32    1.17    1.80     9.89797    26.54634    21.47854
    45  C   4.0   -0.04    4.35    4.28    13.59630    25.48380    17.17369
    46  C   4.0   -0.03    4.23    4.06    14.88038    27.94682    16.68634
    47  C   4.0    0.24    3.14    3.03    14.80771    28.65384    13.90836
    48  O   6.0   -0.29    1.21    1.80    15.82252    30.66085    13.35486
    49  O   6.0   -0.29    1.23    1.80    13.98897    27.15438    12.30186
    50  H   1.0    0.09    1.12    1.45    12.20445    21.05476    18.72641
    51  H   1.0    0.05    1.07    1.44    15.66642    24.57682    20.47273
    52  H   1.0    0.04    1.01    1.43    14.48549    23.95257    16.00826
    53  H   1.0    0.05    1.06    1.44    11.62492    25.56138    16.77350
    54  H   1.0    0.05    1.04    1.43    13.90789    29.44135    17.71706
    55  H   1.0    0.05    1.02    1.43    16.86542    27.99455    17.29180
    56  N   5.0   -0.20    3.25    1.97    11.77937    26.65581    27.46476
    57  C   4.0    0.03    4.22    4.03    10.99514    25.47701    29.81989
    58  C   4.0    0.07    3.20    3.04    13.28476    25.18679    31.58229
    59  O   6.0   -0.30    1.15    1.80    15.40948    24.73845    30.79910
    60  C   4.0   -0.04    4.34    4.27     9.78858    22.89520    29.15044
    61  C   4.0   -0.05    4.23    4.06     9.06312    21.36012    31.46865
    62  C   4.0    0.23    3.14    3.03     7.59937    19.02137    30.73947
    63  O   6.0   -0.31    1.21    1.80     6.87809    18.60801    28.59038
    64  O   6.0   -0.30    1.17    1.80     7.07838    17.43486    32.53997
    65  H   1.0    0.12    1.06    1.44    12.49227    25.60919    26.16540
    66  H   1.0    0.03    1.06    1.44     9.51626    26.57400    30.67038
    67  H   1.0    0.06    1.06    1.44     8.08685    23.22380    28.19007
    68  H   1.0    0.07    1.07    1.44    11.06242    21.93380    28.01914
    69  H   1.0    0.04    1.06    1.44    10.67658    20.70883    32.42536
    70  H   1.0    0.04    1.04    1.44     7.90801    22.48455    32.68070
    71  N   5.0   -0.21    3.28    1.98    22.37910    13.24374    29.11808
    72  C   4.0    0.03    4.42    4.42    21.13712    13.81234    26.74452
    73  C   4.0    0.15    3.44    3.09    20.86887    11.38217    25.11368
    74  O   6.0   -0.30    1.26    1.80    22.57339     9.84682    25.00123
    75  C   4.0   -0.03    4.21    4.02    22.54635    15.80534    25.22557
    76  S   6.0   -0.03    2.42    3.10    23.00129    18.74223    26.99113
    77  H   1.0    0.11    1.08    1.44    24.05124    13.83328    29.44156
    78  H   1.0    0.05    1.10    1.44    19.33955    14.56930    27.17573
    79  H   1.0    0.06    1.11    1.45    24.35989    15.15586    24.85188
    80  H   1.0    0.05    1.07    1.44    21.46460    16.02237    23.51409
    81  N   5.0   -0.15    3.53    2.10    18.72040    11.19033    23.84444
    82  C   4.0    0.04    4.57    4.62    18.32919     9.04903    22.20123
    83  C   4.0    0.15    3.49    3.11    20.25797     9.12062    20.00120
    84  O   6.0   -0.29    1.24    1.80    20.73790    11.10306    18.93997
    85  C   4.0   -0.04    4.24    4.08    15.73502     9.07108    21.09831
    86  S   6.0   -0.00    2.49    3.10    13.14430     8.81961    23.35633
    87  H   1.0    0.11    1.13    1.45    17.44678    12.47534    24.00840
    88  H   1.0    0.04    1.09    1.44    18.62706     7.32850    23.29934
    89  H   1.0    0.05    1.10    1.44    15.36236    10.84399    20.17607
    90  H   1.0    0.05    1.09    1.44    15.76438     7.61960    19.70009
    91  N   5.0   -0.09    3.64    2.20    21.23916     6.84215    19.28924
    92  C   4.0    0.04    4.55    4.61    23.24280     6.69617    17.35922
    93  C   4.0    0.15    3.40    3.08    22.24083     6.83679    14.65916
    94  O   6.0   -0.29    1.24    1.80    20.01016     6.37808    14.09978
    95  C   4.0   -0.04    4.37    4.32    24.50145     4.17624    17.97561
    96  C   4.0   -0.05    4.27    4.15    22.34478     2.52998    19.05963
    97  C   4.0   -0.02    4.41    4.39    20.87887     4.41086    20.59748
    98  H   1.0    0.07    1.07    1.44    24.51099     8.23939    17.73578
    99  H   1.0    0.05    1.03    1.43    25.39284     3.32700    16.38032
   100  H   1.0    0.04    1.03    1.43    26.00718     4.44411    19.31919
   101  H   1.0    0.04    1.03    1.43    21.13198     1.79734    17.59269
   102  H   1.0    0.03    1.03    1.43    23.01584     1.01098    20.19354
   103  H   1.0    0.04    1.05    1.44    18.94129     4.03827    20.61922
   104  H   1.0    0.04    1.05    1.44    21.70176     4.46815    22.41264
   105  N   5.0   -0.15    3.42    2.03    23.94393     7.38486    12.95543
   106  C   4.0    0.02    4.29    4.18    23.36009     7.39166    10.24886
   107  C   4.0    0.15    3.30    3.05    22.26550     9.85662     9.20711
   108  O   6.0   -0.32    1.24    1.80    21.51386     9.97545     7.05908
   109  H   1.0    0.11    1.13    1.45    25.67510     7.47140    13.34456
   110  H   1.0    0.05    1.04    1.43    25.01281     6.95165     9.20211
   111  H   1.0    0.06    1.06    1.44    21.97776     5.99849     9.89680
   112  N   5.0   -0.15    3.52    2.09    22.16532    11.79211    10.89158
   113  C   4.0    0.04    4.40    4.38    20.79407    14.10182    10.37190
   114  C   4.0    0.14    3.38    3.07    22.41636    16.49469    10.47349
   115  O   6.0   -0.29    1.25    1.80    21.45121    18.57838    10.29108
   116  C   4.0   -0.04    4.41    4.40    18.57612    14.32752    12.25515
   117  C   4.0   -0.02    4.22    4.03    16.57872    12.28265    12.13575
   118  C   4.0   -0.07    4.16    3.92    14.73840    12.62835    14.25469
   119  C   4.0   -0.07    4.14    3.87    15.24934    12.36692     9.55287
   120  H   1.0    0.10    1.13    1.45    22.81574    11.61964    12.56767
   121  H   1.0    0.06    1.07    1.44    20.02132    14.05993     8.48021
   122  H   1.0    0.04    1.05    1.44    19.19074    14.43594    14.15655
   123  H   1.0    0.06    1.05    1.44    17.69246    16.12859    11.96821
   124  H   1.0    0.06    1.06    1.44    17.41631    10.39852    12.33872
   125  H   1.0    0.04    1.02    1.43    13.94995    14.48214    14.02649
   126  H   1.0    0.05    1.01    1.43    15.69524    12.57328    16.03679
   127  H   1.0    0.04    1.01    1.43    13.38879    11.14560    14.35444
   128  H   1.0    0.05    1.00    1.43    14.44667    14.18841     9.17398
   129  H   1.0    0.04    1.01    1.43    13.89780    10.87931     9.43272
   130  H   1.0    0.05    1.01    1.43    16.59396    11.83326     8.13789
   131  N   5.0   -0.15    3.39    2.01    24.91409    16.16374    10.73558
   132  C   4.0    0.01    4.26    4.13    26.62013    18.39066    10.89105
   133  C   4.0    0.15    3.35    3.06    26.64470    19.65896    13.45643
   134  O   6.0   -0.30    1.28    1.80    27.58741    21.77846    13.66479
   135  H   1.0    0.10    1.10    1.44    25.74719    14.50275    10.78068
   136  H   1.0    0.05    1.05    1.44    28.49750    17.86455    10.47465
   137  H   1.0    0.06    1.05    1.44    26.14548    19.89362     9.64272
   138  N   5.0   -0.14    3.50    2.08    25.63316    18.45674    15.45394
   139  C   4.0    0.04    4.46    4.48    25.29777    19.77131    17.78802
   140  C   4.0    0.15    3.42    3.08    27.53160    19.47467    19.58983
   141  O   6.0   -0.31    1.25    1.80    28.58721    17.44369    19.98314
   142  C   4.0   -0.05    4.37    4.33    22.90656    18.71440    19.13087
   143  C   4.0   -0.02    4.20    4.01    20.44600    19.12607    17.62744
   144  C   4.0   -0.07    4.13    3.86    18.27865    17.80301    18.96695
   145  C   4.0   -0.07    4.13    3.87    19.92252    21.90361    17.09118
   146  H   1.0    0.09    1.13    1.45    25.11668    16.75645    15.46444
   147  H   1.0    0.07    1.10    1.44    25.25081    21.76637    17.42153
   148  H   1.0    0.06    1.04    1.43    23.14826    16.77777    19.55485
   149  H   1.0    0.04    1.04    1.43    22.63539    19.68691    20.89677
   150  H   1.0    0.05    1.09    1.44    20.69502    18.31090    15.81723
   151  H   1.0    0.04    1.02    1.43    16.56163    18.01539    17.98820
   152  H   1.0    0.05    1.01    1.43    17.94081    18.48322    20.84480
   153  H   1.0    0.06    1.01    1.43    18.56078    15.80691    19.14353
   154  H   1.0    0.04    1.02    1.43    18.20434    22.13219    16.08949
   155  H   1.0    0.05    1.02    1.43    21.37768    22.66899    15.94874
   156  H   1.0    0.05    1.01    1.43    19.75390    22.95255    18.79552
   157  N   5.0   -0.14    3.53    2.10    28.24265    21.61318    20.71936
   158  C   4.0    0.04    4.36    4.32    30.14227    21.73016    22.70412
   159  C   4.0    0.08    3.23    3.04    28.91246    22.83969    25.03459
   160  O   6.0   -0.31    1.17    1.80    27.25715    24.48264    24.90118
   161  C   4.0    0.05    4.25    4.09    32.39297    23.37044    21.70185
   162  O   6.0   -0.27    2.15    1.85    34.10530    23.41682    23.76250
   163  C   4.0   -0.07    4.13    3.86    31.68842    25.97082    20.81855
   164  H   1.0    0.11    1.12    1.45    27.43452    23.18721    20.24092
   165  H   1.0    0.05    1.08    1.44    30.63385    19.78743    23.02655
   166  H   1.0    0.04    1.05    1.44    33.25829    22.35120    20.16341
   167  H   1.0    0.12    1.05    1.44    35.40950    24.50710    23.35381
   168  H   1.0    0.05    1.02    1.43    30.81035    27.02179    22.29319
   169  H   1.0    0.06    1.02    1.43    30.43312    25.89890    19.28000
   170  H   1.0    0.03    1.04    1.43    33.31940    26.87666    20.26817
   171  N   5.0   -0.21    3.28    1.98    20.08207    26.01963    28.08080
   172  C   4.0    0.04    4.45    4.46    20.90678    24.82186    25.77383
   173  C   4.0    0.15    3.42    3.08    20.91663    26.78548    23.59746
   174  O   6.0   -0.30    1.22    1.80    18.92747    27.90458    23.06175
   175  C   4.0   -0.03    4.24    4.08    19.22862    22.63036    25.08080
   176  S   6.0   -0.02    2.45    3.10    19.39093    20.05734    27.38106
   177  H   1.0    0.12    1.09    1.44    18.41968    25.59276    28.52768
   178  H   1.0    0.05    1.09    1.44    22.77966    24.06477    26.06316
   179  H   1.0    0.07    1.10    1.44    17.29786    23.16379    25.04726
   180  H   1.0    0.04    1.09    1.44    19.64614    22.04536    23.26110
   181  N   5.0   -0.15    3.50    2.08    23.10171    27.14727    22.53217
   182  C   4.0    0.04    4.44    4.45    23.56041    29.04591    20.61126
   183  C   4.0    0.15    3.44    3.09    24.38239    27.73862    18.19157
   184  O   6.0   -0.31    1.28    1.80    25.91678    25.95506    18.26592
   185  C   4.0   -0.03    4.36    4.30    25.63881    30.83907    21.56318
   186  C   4.0   -0.02    3.57    3.15    26.25291    32.89335    19.77802
   187  C   4.0   -0.04    3.47    3.10    28.38894    32.74530    18.20471
   188  C   4.0   -0.05    3.48    3.11    24.75957    35.03972    19.61241
   189  C   4.0   -0.03    3.46    3.10    28.93003    34.70559    16.52966
   190  C   4.0   -0.05    3.45    3.10    25.28458    36.95420    17.94809
   191  C   4.0    0.07    3.46    3.10    27.39888    36.84683    16.41533
   192  O   6.0   -0.27    2.13    1.84    28.01508    38.75009    14.85219
   193  H   1.0    0.11    1.13    1.45    24.53740    26.23771    23.14474
   194  H   1.0    0.06    1.08    1.44    21.85313    30.09130    20.34528
   195  H   1.0    0.04    1.05    1.44    24.91162    31.60394    23.30405
   196  H   1.0    0.05    1.03    1.43    27.40848    29.87232    22.00305
   197  H   1.0    0.05    1.05    1.44    29.66083    31.27406    18.36322
   198  H   1.0    0.04    1.04    1.43    23.14005    35.12474    20.84026
   199  H   1.0    0.05    1.06    1.44    30.58793    34.69212    15.52326
   200  H   1.0    0.04    1.04    1.43    24.09079    38.57709    17.86835
   201  H   1.0    0.10    1.06    1.44    26.93900    40.14094    15.16289
   202  N   5.0   -0.15    3.43    2.04    23.38417    28.58000    16.03846
   203  C   4.0    0.04    4.42    4.41    24.06781    27.46956    13.60181
   204  C   4.0    0.16    3.43    3.09    26.51848    28.56513    12.47928
   205  O   6.0   -0.31    1.25    1.80    26.79039    30.81561    12.21813
   206  C   4.0   -0.03    4.33    4.26    21.88290    27.90201    11.67745
   207  C   4.0   -0.01    3.57    3.15    22.55884    26.90145     9.10018
   208  C   4.0   -0.04    3.50    3.11    23.69145    28.31630     7.23870
   209  C   4.0   -0.02    3.49    3.11    22.15059    24.32309     8.62265
   210  C   4.0   -0.02    3.44    3.09    24.50027    27.24912     4.98322
   211  C   4.0   -0.03    3.46    3.10    22.88181    23.23586     6.38409
   212  C   4.0    0.08    3.49    3.11    24.14327    24.71979     4.54595
   213  O   6.0   -0.22    2.17    1.85    24.95265    23.54200     2.36834
   214  H   1.0    0.11    1.12    1.45    22.17183    29.89907    16.04890
   215  H   1.0    0.06    1.07    1.44    24.35345    25.49447    14.07707
   216  H   1.0    0.05    1.05    1.44    20.17408    27.13508    12.31945
   217  H   1.0    0.06    1.04    1.44    21.47451    29.87686    11.56326
   218  H   1.0    0.05    1.06    1.44    24.09228    30.20223     7.49253
   219  H   1.0    0.07    1.05    1.44    21.35546    23.11701     9.99297
   220  H   1.0    0.07    1.06    1.44    25.36846    28.35944     3.64057
   221  H   1.0    0.07    1.05    1.44    22.49294    21.32090     6.16201
   222  H   1.0    0.13    1.15    1.45    24.80068    21.92231     2.78661
   223  N   5.0   -0.15    3.47    2.06    28.19245    26.80960    11.75666
   224  C   4.0    0.04    4.42    4.41    30.35008    27.46742    10.16478
   225  C   4.0    0.20    3.29    3.05    30.33193    26.03144     7.68382
   226  O   6.0   -0.29    1.17    1.80    31.26171    27.02357     5.78319
   227  C   4.0   -0.04    4.37    4.33    32.82248    27.21034    11.53137
   228  C   4.0   -0.02    4.20    4.00    33.49710    29.43524    13.34569
   229  C   4.0   -0.09    4.15    3.90    35.54644    28.63610    15.07364
   230  C   4.0   -0.08    4.12    3.84    34.05237    31.81629    11.85362
   231  O   6.0   -0.24    2.13    1.84    29.50002    23.76103     7.80243
   232  H   1.0    0.12    1.13    1.45    27.82636    25.09838    12.14967
   233  H   1.0    0.05    1.09    1.44    30.19657    29.44569     9.65659
   234  H   1.0    0.05    1.03    1.43    32.77515    25.33720    12.38274
   235  H   1.0    0.04    1.05    1.44    34.35996    27.08740    10.20894
   236  H   1.0    0.05    1.06    1.44    31.81828    29.71512    14.51980
   237  H   1.0    0.03    1.02    1.43    37.21548    28.18994    14.04241
   238  H   1.0    0.04    1.02    1.43    34.96589    26.99493    16.10344
   239  H   1.0    0.03    1.01    1.43    35.97253    30.11656    16.39718
   240  H   1.0    0.04    1.01    1.43    32.49414    32.42107    10.71777
   241  H   1.0    0.03    1.02    1.43    35.67820    31.46444    10.71908
   242  H   1.0    0.03    1.01    1.43    34.54424    33.30863    13.16045
   243  H   1.0    0.17    1.09    1.44    29.64734    22.88213     6.12185
   244  C   4.0    0.01    3.93    3.51     6.95213     4.98145    26.62075
   245  O   6.0   -0.25    2.02    1.83     7.48796     5.24413    29.12777
   246  H   1.0    0.04    1.01    1.43     6.03433     6.65697    26.02991
   247  H   1.0    0.05    1.02    1.43     8.65945     4.76286    25.61187
   248  H   1.0    0.04    0.98    1.43     5.65865     3.38310    26.33686
   249  H   1.0    0.11    1.00    1.43     5.88440     5.44589    30.11288
   250  C   4.0    0.00    3.94    3.52     3.21561     1.89322    21.23532
   251  O   6.0   -0.27    2.02    1.83     4.89436     3.46452    19.92765
   252  H   1.0    0.06    1.00    1.43     4.06590     0.07204    21.32787
   253  H   1.0    0.04    1.01    1.43     2.95478     2.67890    23.03252
   254  H   1.0    0.04    1.01    1.43     1.52102     1.86771    20.18540
   255  H   1.0    0.12    1.04    1.43     4.28895     5.12262    19.84491
   256  C   4.0    0.01    3.93    3.50    10.07906     4.31202    11.02991
   257  O   6.0   -0.24    2.02    1.83     9.69105     1.92948    12.09652
   258  H   1.0    0.05    1.00    1.43     9.37251     5.66064    12.37724
   259  H   1.0    0.04    0.99    1.43     9.01620     4.50752     9.30928
   260  H   1.0    0.05    1.00    1.43    12.04773     4.65468    10.70319
   261  H   1.0    0.14    1.05    1.44    10.39525     0.71064    11.00390
   262  C   4.0    0.01    3.95    3.53    25.49161     4.27144    26.51289
   263  O   6.0   -0.25    2.03    1.83    26.81820     3.30451    28.48342
   264  H   1.0    0.06    1.00    1.43    26.22335     6.03663    25.87230
   265  H   1.0    0.05    1.00    1.43    23.57417     4.54799    27.09619
   266  H   1.0    0.04    1.01    1.43    25.72173     2.79015    25.16031
   267  H   1.0    0.11    1.04    1.43    28.54058     3.05251    28.02503
   268  C   4.0   -0.00    3.88    3.44    29.23340    14.73451    27.52765
   269  O   6.0   -0.27    1.99    1.83    27.66257    14.18848    29.71973
   270  H   1.0    0.05    0.98    1.43    28.85047    13.43079    25.98700
   271  H   1.0    0.05    1.00    1.43    28.90082    16.64410    26.95221
   272  H   1.0    0.03    0.99    1.43    31.21881    14.69026    27.96229
   273  H   1.0    0.12    1.03    1.43    28.13080    12.57311    30.33290
   274  O   6.0   -0.31    2.06    1.83    24.13968    13.07087    15.76302
   275  H   1.0    0.14    1.00    1.43    25.52771    13.09582    14.72692
   276  H   1.0    0.14    1.01    1.43    22.87971    14.04426    15.24026
   277  O   6.0   -0.30    2.00    1.83    28.45450    12.55225    18.49723
   278  H   1.0    0.14    0.99    1.43    29.89491    13.56937    18.44473
   279  H   1.0    0.16    1.01    1.43    27.21288    13.67519    19.00609
   280  O   6.0   -0.32    2.01    1.83    19.77643    32.79486    15.96663
   281  H   1.0    0.14    1.01    1.43    21.07137    33.92052    15.79304
   282  H   1.0    0.14    1.00    1.43    18.33995    33.72761    15.93625
   283  O   6.0   -0.31    1.96    1.82    28.39053    12.03533    10.37611
   284  H   1.0    0.12    0.98    1.43    29.72963    13.19852    10.15365
   285  H   1.0    0.12    0.96    1.43    28.16332    11.35820     8.67355
   286  O   6.0   -0.30    1.94    1.82    29.22177     7.83302    14.04299
   287  H   1.0    0.12    0.95    1.42    31.02714     7.33575    14.29666
   288  H   1.0    0.14    0.97    1.43    29.02903     9.40703    14.94825
   289  O   6.0   -0.26    1.93    1.82    14.02508    28.08651     7.51763
   290  H   1.0    0.13    0.95    1.42    15.61262    28.77925     6.82207
   291  H   1.0    0.13    0.97    1.43    12.57730    28.74923     6.66151
   292  O   6.0   -0.34    1.97    1.82    11.68803    19.55522    15.37965
   293  H   1.0    0.13    1.00    1.43    12.89937    20.41564    14.45724
   294  H   1.0    0.12    0.97    1.43    10.01476    20.27900    15.26572
   295  O   6.0   -0.32    1.99    1.82    27.29569     9.70042    22.38470
   296  H   1.0    0.14    1.00    1.43    28.72387    10.63426    22.42782
   297  H   1.0    0.17    1.00    1.43    25.79651    10.53995    22.51683
   298  N   5.0   -0.11    4.13    3.25     6.77283    -0.42932    -7.79138
   299  C   4.0   -0.03    4.15    3.91     6.30589    -0.22265   -10.44057
   300  C   4.0    0.07    3.14    3.03     8.34909     1.34778   -11.69880
   301  O   6.0   -0.29    1.16    1.80    10.37771     1.66246   -10.63102
   302  H   1.0    0.10    1.06    1.44     8.11703     0.73310    -7.17561
   303  H   1.0    0.06    1.06    1.44     5.22196    -0.06864    -6.83863
   304  H   1.0    0.06    1.04    1.43     7.23553    -2.24370    -7.35392
   305  H   1.0    0.03    1.05    1.44     6.07319    -2.03298   -11.18491
   306  H   1.0    0.03    1.05    1.44     4.56030     0.73379   -10.69998
   307  C   4.0    0.02    3.92    3.50    25.03731    -2.40075    -3.50710
   308  O   6.0   -0.27    2.00    1.83    24.88148    -4.99781    -3.91276
   309  H   1.0    0.05    0.99    1.43    25.93048    -1.97622    -1.73297
   310  H   1.0    0.06    0.99    1.43    23.23127    -1.45102    -3.64880
   311  H   1.0    0.05    1.01    1.43    26.23496    -1.74300    -4.98405
   312  H   1.0    0.12    1.05    1.44    23.96227    -5.75089    -2.57390
   313  C   4.0    0.00    3.93    3.50    34.92575     4.98145    26.62075
   314  O   6.0   -0.26    1.98    1.82    35.46158     5.24413    29.12777
   315  H   1.0    0.04    1.01    1.43    34.00795     6.65697    26.02991
   316  H   1.0    0.04    1.01    1.43    36.63307     4.76286    25.61187
   317  H   1.0    0.04    0.98    1.43    33.63226     3.38310    26.33686
   318  H   1.0    0.11    1.00    1.43    33.85801     5.44589    30.11288
   319  C   4.0    0.00    3.94    3.52    31.18922     1.89322    21.23532
   320  O   6.0   -0.27    2.02    1.83    32.86798     3.46452    19.92765
   321  H   1.0    0.06    1.00    1.43    32.03951     0.07204    21.32787
   322  H   1.0    0.04    1.01    1.43    30.92839     2.67890    23.03252
   323  H   1.0    0.04    1.01    1.43    29.49464     1.86771    20.18540
   324  H   1.0    0.12    1.04    1.43    32.26256     5.12262    19.84491
   325  C   4.0    0.00    3.93    3.50    23.19406    36.83488    11.02991
   326  O   6.0   -0.25    2.02    1.83    22.80605    34.45234    12.09652
   327  H   1.0    0.04    1.00    1.43    22.48752    38.18350    12.37724
   328  H   1.0    0.03    0.99    1.43    22.13121    37.03037     9.30928
   329  H   1.0    0.05    1.00    1.43    25.16273    37.17754    10.70319
   330  H   1.0    0.14    1.05    1.44    23.51025    33.23350    11.00390
   331  C   4.0    0.01    3.93    3.50    38.05267     4.31202    11.02991
   332  O   6.0   -0.24    2.02    1.83    37.66466     1.92948    12.09652
   333  H   1.0    0.05    1.00    1.43    37.34613     5.66064    12.37724
   334  H   1.0    0.04    0.99    1.43    36.98982     4.50752     9.30928
   335  H   1.0    0.05    1.00    1.43    40.02134     4.65468    10.70319
   336  H   1.0    0.14    1.05    1.44    38.36887     0.71064    11.00390
   337  C   4.0    0.02    3.90    3.47     5.29533    11.31144    31.53126
   338  O   6.0   -0.27    2.03    1.83     2.71207    10.83996    31.89355
   339  H   1.0    0.07    1.01    1.43     5.69659    12.82152    32.75070
   340  H   1.0    0.06    1.01    1.43     6.32167     9.65059    31.63783
   341  H   1.0    0.06    0.95    1.42     5.75537    12.21933    29.63379
   342  H   1.0    0.11    1.00    1.43     2.21835     9.41437    30.77941
   343  C   4.0    0.01    3.88    3.44     1.25978    14.73451    27.52765
   344  O   6.0   -0.26    1.97    1.82    -0.31104    14.18848    29.71973
   345  H   1.0    0.04    0.98    1.43     0.87686    13.43079    25.98700
   346  H   1.0    0.05    1.00    1.43     0.92721    16.64410    26.95221
   347  H   1.0    0.05    0.99    1.43     3.24520    14.69026    27.96229
   348  H   1.0    0.13    1.07    1.44     0.15718    12.57311    30.33290
   349  C   4.0   -0.00    3.91    3.48     9.74815    14.45548    -3.10874
   350  O   6.0   -0.24    1.95    1.82     8.75030    16.65401    -1.78485
   351  H   1.0    0.05    1.01    1.43    10.87988    15.15712    -4.57240
   352  H   1.0    0.04    1.01    1.43     8.20872    13.45754    -3.82113
   353  H   1.0    0.04    1.01    1.43    10.80872    13.44673    -1.80369
   354  H   1.0    0.12    1.00    1.43     7.85857    16.12405    -0.25222
   355  C   4.0    0.04    3.07    3.02    15.51851    21.30670    10.27618
   356  O   6.0   -0.24    1.02    1.80    16.64006    19.53588     8.35227
   357  H   1.0    0.06    1.98    2.45    15.93001    23.09359    10.34523
   358  H   1.0    0.04    1.61    1.71    16.78166    23.36486    11.10990
   359  H   1.0    0.04    0.50    1.40    15.25502    19.86476    12.56433
   360  H   1.0    0.09    0.13    1.40    13.61040    19.91063     7.37482
   361  C   4.0    0.02    3.07    3.02     2.40351   -11.21616    10.27618
   362  O   6.0   -0.26    1.01    1.80     3.52506   -12.98698     8.35227
   363  H   1.0    0.06    1.98    2.45     2.81501    -9.42927    10.34523
   364  H   1.0    0.03    1.61    1.71     3.66666    -9.15799    11.10990
   365  H   1.0    0.04    0.49    1.40     2.14002   -12.65810    12.56433
   366  H   1.0    0.08    0.13    1.40     0.49540   -12.61223     7.37482
   367  O   6.0   -0.34    2.01    1.83    -3.83394    13.07087    15.76302
   368  H   1.0    0.15    0.99    1.43    -2.44590    13.09582    14.72692
   369  H   1.0    0.13    1.00    1.43    -5.09390    14.04426    15.24026
   370  O   6.0   -0.31    2.00    1.83     0.48089    12.55225    18.49723
   371  H   1.0    0.15    0.99    1.43     1.92130    13.56937    18.44473
   372  H   1.0    0.15    1.01    1.43    -0.76074    13.67519    19.00609
   373  O   6.0   -0.31    2.02    1.83    34.63504     0.27200    15.96663
   374  H   1.0    0.15    1.01    1.43    35.92998     1.39766    15.79304
   375  H   1.0    0.16    1.00    1.43    33.19856     1.20475    15.93625
   376  O   6.0   -0.31    2.02    1.83     6.66142     0.27200    15.96663
   377  H   1.0    0.15    1.01    1.43     7.95636     1.39766    15.79304
   378  H   1.0    0.16    1.00    1.43     5.22495     1.20475    15.93625
   379  O   6.0   -0.28    1.94    1.82    13.82258    23.71056    -3.65361
   380  H   1.0    0.15    1.00    1.43    15.18910    24.27344    -4.59896
   381  H   1.0    0.12    0.97    1.43    12.67439    25.11640    -3.71096
   382  O   6.0   -0.30    1.92    1.82     0.41692    12.03533    10.37611
   383  H   1.0    0.13    0.98    1.43     1.75602    13.19852    10.15365
   384  H   1.0    0.12    0.96    1.43     0.18971    11.35820     8.67355
   385  O   6.0   -0.30    1.94    1.82     1.24815     7.83302    14.04299
   386  H   1.0    0.12    0.95    1.42     3.05353     7.33575    14.29666
   387  H   1.0    0.14    0.97    1.43     1.05541     9.40703    14.94825
   388  O   6.0   -0.26    1.93    1.82    28.88370    -4.43635     7.51763
   389  H   1.0    0.13    0.95    1.42    30.47123    -3.74361     6.82207
   390  H   1.0    0.14    0.97    1.43    27.43591    -3.77363     6.66151
   391  O   6.0   -0.26    1.93    1.82     0.91008    -4.43635     7.51763
   392  H   1.0    0.13    0.95    1.42     2.49762    -3.74361     6.82207
   393  H   1.0    0.13    0.97    1.43    -0.53770    -3.77363     6.66151
   394  O   6.0   -0.33    1.98    1.82    -0.67792     9.70042    22.38470
   395  H   1.0    0.14    1.00    1.43     0.75025    10.63426    22.42782
   396  H   1.0    0.14    0.99    1.43    -2.17710    10.53995    22.51683
   397  N   5.0   -0.20    3.25    1.97    39.49835    17.22339    24.95805
   398  C   4.0    0.03    4.26    4.11    39.50446    18.21747    22.38662
   399  C   4.0    0.07    3.18    3.03    40.46932    20.97681    22.39223
   400  O   6.0   -0.31    1.13    1.80    41.13952    22.06378    24.28319
   401  C   4.0   -0.04    4.35    4.30    36.89848    17.89218    21.22285
   402  C   4.0   -0.01    3.56    3.14    36.23484    15.19862    20.91556
   403  C   4.0   -0.05    3.44    3.09    37.33569    13.83247    18.96396
   404  C   4.0   -0.04    3.43    3.09    34.73016    13.89607    22.70847
   405  C   4.0   -0.04    3.31    3.06    36.79619    11.29559    18.60317
   406  C   4.0   -0.04    3.33    3.06    34.24523    11.30930    22.43640
   407  C   4.0   -0.04    3.34    3.06    35.16882    10.04478    20.30612
   408  H   1.0    0.09    1.05    1.44    38.15848    17.69909    26.05636
   409  H   1.0    0.03    1.07    1.44    40.88205    17.19258    21.31407
   410  H   1.0    0.05    1.06    1.44    35.64884    18.91015    22.39973
   411  H   1.0    0.04    1.04    1.43    36.85113    18.76477    19.36940
   412  H   1.0    0.04    1.00    1.43    38.51203    14.89141    17.55712
   413  H   1.0    0.05    1.03    1.43    33.99714    14.97218    24.26904
   414  H   1.0    0.04    1.00    1.43    37.72884    10.30532    16.99753
   415  H   1.0    0.05    1.03    1.43    32.99873    10.36989    23.74644
   416  H   1.0    0.05    1.02    1.43    34.73113     8.06224    20.08004
   417  N   5.0   -0.21    3.24    1.97    -0.42260   -10.39902    20.09970
   418  C   4.0    0.03    4.25    4.10     0.61990    -7.85585    19.91909
   419  C   4.0    0.07    3.23    3.04    -0.90771    -6.03136    21.53450
   420  O   6.0   -0.31    1.13    1.80    -3.21703    -5.97651    21.47854
   421  C   4.0   -0.04    4.34    4.28     0.48130    -7.03906    17.17369
   422  C   4.0   -0.03    4.23    4.06     1.76538    -4.57604    16.68634
   423  C   4.0    0.25    3.14    3.03     1.69271    -3.86902    13.90836
   424  O   6.0   -0.28    1.21    1.80     2.70752    -1.86201    13.35486
   425  O   6.0   -0.29    1.23    1.80     0.87397    -5.36848    12.30186
   426  H   1.0    0.08    1.04    1.43    -0.91055   -11.46809    18.72641
   427  H   1.0    0.04    1.07    1.44     2.55141    -7.94604    20.47273
   428  H   1.0    0.04    1.01    1.43     1.37049    -8.57028    16.00826
   429  H   1.0    0.06    1.06    1.44    -1.49008    -6.96148    16.77350
   430  H   1.0    0.05    1.04    1.43     0.79288    -3.08151    17.71706
   431  H   1.0    0.05    1.02    1.43     3.75042    -4.52831    17.29180
   432  N   5.0   -0.21    3.24    1.97    27.55102   -10.39902    20.09970
   433  C   4.0    0.03    4.35    4.29    28.59351    -7.85585    19.91909
   434  C   4.0    0.15    3.43    3.09    27.06590    -6.03136    21.53450
   435  O   6.0   -0.32    1.26    1.80    24.75658    -5.97651    21.47854
   436  C   4.0   -0.04    4.35    4.28    28.45491    -7.03906    17.17369
   437  C   4.0   -0.03    4.23    4.06    29.73899    -4.57604    16.68634
   438  C   4.0    0.24    3.14    3.03    29.66632    -3.86902    13.90836
   439  O   6.0   -0.28    1.21    1.80    30.68113    -1.86201    13.35486
   440  O   6.0   -0.28    1.23    1.80    28.84759    -5.36848    12.30186
   441  H   1.0    0.08    1.04    1.43    27.06306   -11.46809    18.72641
   442  H   1.0    0.04    1.07    1.44    30.52503    -7.94604    20.47273
   443  H   1.0    0.05    1.01    1.43    29.34410    -8.57028    16.00826
   444  H   1.0    0.05    1.06    1.44    26.48353    -6.96148    16.77350
   445  H   1.0    0.05    1.04    1.43    28.76650    -3.08151    17.71706
   446  H   1.0    0.05    1.02    1.43    31.72403    -4.52831    17.29180
   447  N   5.0   -0.16    3.36    2.01    28.49061    -4.36908    22.90368
   448  C   4.0    0.01    4.19    3.99    27.32236    -2.49473    24.44719
   449  C   4.0    0.07    3.11    3.03    26.47954    -3.39138    27.06161
   450  O   6.0   -0.30    1.12    1.80    25.62625    -1.87261    28.61493
   451  H   1.0    0.11    1.12    1.45    30.30903    -4.45869    22.90703
   452  H   1.0    0.04    1.05    1.44    28.61578    -0.98210    24.69470
   453  H   1.0    0.05    1.06    1.44    25.65945    -1.87393    23.49821
   454  N   5.0   -0.20    3.32    1.99    13.42277    18.11026    -9.17019
   455  C   4.0    0.04    4.44    4.44    14.84403    15.78050    -9.11230
   456  C   4.0    0.15    3.45    3.10    16.27927    15.55957    -6.62589
   457  O   6.0   -0.30    1.28    1.80    16.95440    17.46435    -5.42911
   458  C   4.0   -0.03    4.11    3.82    16.47195    15.39354   -11.38342
   459  S   6.0   -0.07    2.43    3.10    18.42579    18.19775   -12.05637
   460  H   1.0    0.13    1.10    1.44    14.42729    19.60075    -8.91434
   461  H   1.0    0.05    1.08    1.44    13.44564    14.28418    -8.97834
   462  H   1.0    0.05    1.08    1.44    17.74545    13.82015   -11.18558
   463  H   1.0    0.04    1.07    1.44    15.48719    14.99417   -13.12106
   464  H   1.0    0.04    0.99    1.43    20.28428    18.00299   -13.34106
   465  N   5.0   -0.15    3.52    2.09    16.83222    13.23833    -5.93769
   466  C   4.0    0.04    4.45    4.46    18.44810    12.66785    -3.76463
   467  C   4.0    0.16    3.50    3.12    19.89392    10.30531    -4.53968
   468  O   6.0   -0.30    1.32    1.80    18.71254     8.43966    -5.39247
   469  C   4.0   -0.03    4.32    4.24    16.92791    12.35730    -1.33792
   470  C   4.0    0.16    3.27    3.05    18.45986    11.11894     0.74604
   471  O   6.0   -0.32    1.31    1.80    19.02494     8.89212     0.57558
   472  N   5.0   -0.20    3.23    1.96    18.97147    12.50357     2.73325
   473  H   1.0    0.11    1.13    1.45    16.07837    11.84208    -6.79780
   474  H   1.0    0.07    1.08    1.44    19.69768    14.25943    -3.59976
   475  H   1.0    0.06    1.04    1.44    16.26347    14.17393    -0.76459
   476  H   1.0    0.05    1.05    1.44    15.36963    11.14941    -1.75239
   477  H   1.0    0.12    1.08    1.44    18.59866    14.31128     2.73173
   478  H   1.0    0.12    1.07    1.44    19.95228    11.79063     4.10727
   479  N   5.0   -0.15    3.46    2.05    22.36824    10.35014    -4.33859
   480  C   4.0    0.04    4.50    4.54    23.86032     8.25886    -5.47671
   481  C   4.0    0.16    3.39    3.08    23.51962     5.73217    -4.02521
   482  O   6.0   -0.31    1.25    1.80    23.91941     3.76950    -5.13974
   483  C   4.0   -0.02    4.30    4.19    26.68284     8.94131    -5.63951
   484  C   4.0   -0.08    4.19    3.98    26.98036    11.07962    -7.42258
   485  C   4.0   -0.07    4.17    3.94    27.82532     9.50742    -3.08471
   486  H   1.0    0.10    1.10    1.44    23.22208    11.80791    -3.62109
   487  H   1.0    0.05    1.07    1.44    23.23353     7.98637    -7.39795
   488  H   1.0    0.04    1.07    1.44    27.63399     7.31690    -6.46981
   489  H   1.0    0.05    1.03    1.43    27.91367    12.59972    -6.45785
   490  H   1.0    0.05    1.01    1.43    25.26252    11.92254    -8.12281
   491  H   1.0    0.03    1.01    1.43    28.17551    10.68833    -8.99040
   492  H   1.0    0.05    1.02    1.43    27.00493    11.13835    -2.27141
   493  H   1.0    0.04    1.01    1.43    29.78740     9.96042    -3.47555
   494  H   1.0    0.05    1.02    1.43    27.81996     7.92482    -1.89457
   495  N   5.0   -0.14    3.48    2.06    22.60297     5.72470    -1.68309
   496  C   4.0    0.04    4.39    4.36    22.04143     3.38682    -0.32000
   497  C   4.0    0.16    3.41    3.08    19.41979     2.29918    -0.99529
   498  O   6.0   -0.31    1.27    1.80    19.10715     0.03552    -1.14740
   499  C   4.0   -0.03    4.26    4.12    22.11585     3.91098     2.56434
   500  C   4.0   -0.03    4.18    3.95    21.52811     1.66840     4.29157
   501  C   4.0    0.16    3.21    3.04    23.54595    -0.45409     4.13023
   502  O   6.0   -0.30    1.22    1.80    25.73663     0.03236     3.67402
   503  N   5.0   -0.20    3.21    1.96    22.76997    -2.79690     4.48203
   504  H   1.0    0.11    1.11    1.45    22.17856     7.26624    -0.77706
   505  H   1.0    0.06    1.05    1.44    23.48834     1.99298    -0.81777
   506  H   1.0    0.06    1.04    1.43    23.96633     4.62736     3.01710
   507  H   1.0    0.06    1.03    1.43    20.80768     5.44349     2.99657
   508  H   1.0    0.04    1.02    1.43    21.46639     2.29987     6.26604
   509  H   1.0    0.06    1.03    1.43    19.69258     0.83310     3.84836
   510  H   1.0    0.12    1.07    1.44    21.04124    -3.25344     4.87351
   511  H   1.0    0.10    1.05    1.44    23.96197    -4.16195     4.46909
   512  N   5.0   -0.14    3.49    2.07    17.55937     3.93829    -1.19154
   513  C   4.0    0.04    4.42    4.42    14.88477     3.09527    -1.24531
   514  C   4.0    0.15    3.37    3.07    13.56154     3.46104    -3.77000
   515  O   6.0   -0.29    1.22    1.80    11.85010     2.04225    -4.34431
   516  C   4.0   -0.04    4.33    4.25    13.43165     4.58886     0.82600
   517  C   4.0   -0.01    3.55    3.14    14.37229     4.08581     3.49959
   518  C   4.0   -0.04    3.49    3.11    14.01130     1.79067     4.56797
   519  C   4.0   -0.04    3.47    3.10    15.52717     6.02692     4.86071
   520  C   4.0   -0.04    3.40    3.08    14.79731     1.33848     7.03076
   521  C   4.0   -0.04    3.35    3.07    16.28465     5.61106     7.38614
   522  C   4.0   -0.04    3.39    3.08    15.88851     3.25946     8.40482
   523  H   1.0    0.11    1.11    1.45    17.83392     5.72688    -1.14840
   524  H   1.0    0.07    1.08    1.44    14.83634     1.10341    -0.86769
   525  H   1.0    0.04    1.03    1.43    13.53288     6.59633     0.36301
   526  H   1.0    0.05    1.05    1.44    11.53080     3.97043     0.57423
   527  H   1.0    0.06    1.05    1.44    13.01941     0.34863     3.59374
   528  H   1.0    0.06    1.04    1.43    15.85224     7.77214     3.96331
   529  H   1.0    0.06    1.04    1.43    14.54730    -0.46423     7.87463
   530  H   1.0    0.06    1.02    1.43    17.12889     7.14711     8.44435
   531  H   1.0    0.06    1.02    1.43    16.47781     2.94318    10.36280
   532  N   5.0   -0.15    3.48    2.06    14.22899     5.53711    -5.09850
   533  C   4.0    0.16    3.56    3.14    14.75266     7.51464    -9.14818
   534  O   6.0   -0.32    1.32    1.80    14.74939     9.80114    -9.60029
   535  H   1.0    0.11    1.13    1.45    15.67613     6.64735    -4.77180
   536  H   1.0    0.07    1.11    1.45    12.05369     4.83787    -8.11346
   537  C   4.0    0.04    4.47    4.49    12.92998     6.40600    -7.31815
   538  C   4.0   -0.03    4.35    4.29    10.72956     8.37698    -6.89230
   539  C   4.0   -0.01    3.53    3.13     8.36710     7.24080    -5.95952
   540  C   4.0   -0.04    3.50    3.12     6.47971     6.32949    -7.53172
   541  C   4.0   -0.04    3.47    3.10     8.01813     6.94792    -3.37019
   542  C   4.0   -0.05    3.40    3.08     4.29952     5.15601    -6.74486
   543  C   4.0   -0.04    3.43    3.09     5.81904     5.68884    -2.48156
   544  C   4.0    0.06    3.47    3.10     4.05337     4.85285    -4.18412
   545  O   6.0   -0.26    2.11    1.84     1.86830     3.55608    -3.35540
   546  H   1.0    0.04    1.05    1.44    11.39694     9.65043    -5.43748
   547  H   1.0    0.05    1.04    1.43    10.42110     9.46785    -8.59448
   548  H   1.0    0.05    1.01    1.43     6.74621     6.55417    -9.60463
   549  H   1.0    0.05    1.03    1.43     9.35096     7.53964    -1.95603
   550  H   1.0    0.04    1.02    1.43     2.87381     4.46159    -8.05057
   551  H   1.0    0.05    1.03    1.43     5.45575     5.39350    -0.51113
   552  H   1.0    0.12    1.05    1.44     1.92669     3.39869    -1.59606
   553  N   5.0   -0.07    3.69    2.26    16.36620     5.92017   -10.27483
   554  C   4.0    0.03    4.45    4.46    18.09213     6.96899   -12.24685
   555  C   4.0    0.07    3.24    3.04    16.54954     7.72939   -14.52185
   556  O   6.0   -0.29    1.14    1.80    14.36241     7.00353   -14.83941
   557  C   4.0   -0.05    4.32    4.24    19.79295     4.64409   -12.86825
   558  C   4.0   -0.04    4.27    4.15    18.04687     2.39317   -12.32451
   559  C   4.0   -0.00    4.36    4.31    16.59804     3.18054    -9.97116
   560  H   1.0    0.05    1.05    1.44    19.04355     8.59907   -11.48240
   561  H   1.0    0.03    1.04    1.43    20.35614     4.68357   -14.79792
   562  H   1.0    0.04    1.03    1.43    21.39257     4.57900   -11.63619
   563  H   1.0    0.05    1.01    1.43    16.68344     2.15768   -13.92399
   564  H   1.0    0.04    1.05    1.44    19.06738     0.74516   -12.02815
   565  H   1.0    0.07    1.06    1.44    14.87420     2.30104    -9.91114
   566  H   1.0    0.06    1.03    1.43    17.58460     2.84142    -8.22792
   567  N   5.0   -0.15    3.43    2.04    -6.73445     6.84215    19.28924
   568  C   4.0    0.03    4.47    4.49    -4.73082     6.69617    17.35922
   569  C   4.0    0.15    3.39    3.08    -5.73278     6.83679    14.65916
   570  O   6.0   -0.30    1.23    1.80    -7.96346     6.37808    14.09978
   571  C   4.0   -0.04    4.37    4.32    -3.47216     4.17624    17.97561
   572  C   4.0   -0.04    4.27    4.14    -5.62883     2.52998    19.05963
   573  C   4.0   -0.02    4.30    4.21    -7.09475     4.41086    20.59748
   574  H   1.0    0.05    1.06    1.44    -3.46262     8.23939    17.73578
   575  H   1.0    0.05    1.03    1.43    -2.58077     3.32700    16.38032
   576  H   1.0    0.04    1.03    1.43    -1.96644     4.44411    19.31919
   577  H   1.0    0.05    1.03    1.43    -6.84164     1.79734    17.59269
   578  H   1.0    0.04    1.03    1.43    -4.95778     1.01098    20.19354
   579  H   1.0    0.03    1.05    1.44    -9.03232     4.03827    20.61922
   580  H   1.0    0.03    1.05    1.44    -6.27186     4.46815    22.41264
   581  N   5.0   -0.15    3.37    2.01    -4.02969     7.38486    12.95543
   582  C   4.0    0.02    4.20    3.99    -4.61353     7.39166    10.24886
   583  C   4.0    0.09    3.10    3.02    -5.70811     9.85662     9.20711
   584  O   6.0   -0.30    1.12    1.80    -6.45976     9.97545     7.05908
   585  H   1.0    0.11    1.13    1.45    -2.29852     7.47140    13.34456
   586  H   1.0    0.05    1.04    1.43    -2.96080     6.95165     9.20211
   587  H   1.0    0.06    1.06    1.44    -5.99585     5.99849     9.89680
   588  N   5.0   -0.21    3.25    1.97    -2.34045    18.45674    15.45394
   589  C   4.0    0.03    4.34    4.28    -2.67584    19.77131    17.78802
   590  C   4.0    0.14    3.41    3.08    -0.44201    19.47467    19.58983
   591  O   6.0   -0.31    1.25    1.80     0.61359    17.44369    19.98314
   592  C   4.0   -0.05    4.37    4.32    -5.06705    18.71440    19.13087
   593  C   4.0   -0.03    4.20    4.01    -7.52762    19.12607    17.62744
   594  C   4.0   -0.09    4.13    3.85    -9.69497    17.80301    18.96695
   595  C   4.0   -0.09    4.13    3.87    -8.05110    21.90361    17.09118
   596  H   1.0    0.10    1.09    1.44    -2.85694    16.75645    15.46444
   597  H   1.0    0.03    1.08    1.44    -2.72280    21.76637    17.42153
   598  H   1.0    0.05    1.04    1.43    -4.82536    16.77777    19.55485
   599  H   1.0    0.04    1.04    1.43    -5.33822    19.68691    20.89677
   600  H   1.0    0.03    1.09    1.44    -7.27859    18.31090    15.81723
   601  H   1.0    0.03    1.02    1.43   -11.41198    18.01539    17.98820
   602  H   1.0    0.03    1.01    1.43   -10.03280    18.48322    20.84480
   603  H   1.0    0.03    1.01    1.43    -9.41283    15.80691    19.14353
   604  H   1.0    0.02    1.02    1.43    -9.76928    22.13219    16.08949
   605  H   1.0    0.03    1.02    1.43    -6.59593    22.66899    15.94874
   606  H   1.0    0.03    1.01    1.43    -8.21971    22.95255    18.79552
   607  N   5.0   -0.15    3.53    2.10     0.26904    21.61318    20.71936
   608  C   4.0    0.04    4.36    4.32     2.16865    21.73016    22.70412
   609  C   4.0    0.08    3.23    3.04     0.93885    22.83969    25.03459
   610  O   6.0   -0.31    1.13    1.80    -0.71646    24.48264    24.90118
   611  C   4.0    0.06    4.25    4.09     4.41935    23.37044    21.70185
   612  O   6.0   -0.26    2.16    1.85     6.13168    23.41682    23.76250
   613  C   4.0   -0.07    4.13    3.86     3.71480    25.97082    20.81855
   614  H   1.0    0.08    1.09    1.44    -0.53909    23.18721    20.24092
   615  H   1.0    0.06    1.08    1.44     2.66024    19.78743    23.02655
   616  H   1.0    0.04    1.05    1.44     5.28468    22.35120    20.16341
   617  H   1.0    0.15    1.08    1.44     7.43588    24.50710    23.35381
   618  H   1.0    0.05    1.02    1.43     2.83674    27.02179    22.29319
   619  H   1.0    0.03    1.02    1.43     2.45951    25.89890    19.28000
   620  H   1.0    0.05    1.04    1.43     5.34579    26.87666    20.26817
   621  N   5.0   -0.23    3.22    1.96     0.21883    26.80960    11.75666
   622  C   4.0    0.03    4.32    4.23     2.37647    27.46742    10.16478
   623  C   4.0    0.19    3.29    3.05     2.35832    26.03144     7.68382
   624  O   6.0   -0.31    1.17    1.80     3.28809    27.02357     5.78319
   625  C   4.0   -0.05    4.38    4.34     4.84886    27.21034    11.53137
   626  C   4.0   -0.03    4.20    4.00     5.52349    29.43524    13.34569
   627  C   4.0   -0.08    4.15    3.90     7.57282    28.63610    15.07364
   628  C   4.0   -0.08    4.12    3.84     6.07876    31.81629    11.85362
   629  O   6.0   -0.25    2.11    1.84     1.52641    23.76103     7.80243
   630  H   1.0    0.09    1.04    1.43    -0.14725    25.09838    12.14967
   631  H   1.0    0.04    1.08    1.44     2.22295    29.44569     9.65659
   632  H   1.0    0.04    1.03    1.43     4.80154    25.33720    12.38274
   633  H   1.0    0.05    1.05    1.44     6.38635    27.08740    10.20894
   634  H   1.0    0.03    1.06    1.44     3.84467    29.71512    14.51980
   635  H   1.0    0.06    1.02    1.43     9.24186    28.18994    14.04241
   636  H   1.0    0.04    1.02    1.43     6.99227    26.99493    16.10344
   637  H   1.0    0.04    1.01    1.43     7.99892    30.11656    16.39718
   638  H   1.0    0.03    1.01    1.43     4.52052    32.42107    10.71777
   639  H   1.0    0.05    1.02    1.43     7.70459    31.46444    10.71908
   640  H   1.0    0.03    1.01    1.43     6.57063    33.30863    13.16045
   641  H   1.0    0.12    1.01    1.43     1.67373    22.88213     6.12185
   642  N   5.0   -0.24    3.19    1.95    30.67437    36.46114    -1.19154
   643  C   4.0    0.03    4.22    4.05    27.99977    35.61813    -1.24531
   644  C   4.0    0.06    3.19    3.03    26.67654    35.98390    -3.77000
   645  O   6.0   -0.32    1.13    1.80    24.96510    34.56511    -4.34431
   646  C   4.0   -0.04    4.32    4.24    26.54665    37.11172     0.82600
   647  C   4.0   -0.02    3.55    3.14    27.48729    36.60867     3.49959
   648  C   4.0   -0.04    3.49    3.11    27.12630    34.31353     4.56797
   649  C   4.0   -0.06    3.47    3.10    28.64218    38.54978     4.86071
   650  C   4.0   -0.04    3.40    3.08    27.91231    33.86134     7.03076
   651  C   4.0   -0.06    3.35    3.07    29.39965    38.13392     7.38614
   652  C   4.0   -0.04    3.39    3.08    29.00351    35.78232     8.40482
   653  H   1.0    0.07    1.04    1.43    30.94892    38.24974    -1.14840
   654  H   1.0    0.05    1.07    1.44    27.95135    33.62627    -0.86769
   655  H   1.0    0.03    1.03    1.43    26.64788    39.11918     0.36301
   656  H   1.0    0.04    1.05    1.44    24.64581    36.49329     0.57423
   657  H   1.0    0.05    1.05    1.44    26.13441    32.87149     3.59374
   658  H   1.0    0.03    1.04    1.43    28.96724    40.29500     3.96331
   659  H   1.0    0.06    1.04    1.43    27.66230    32.05863     7.87463
   660  H   1.0    0.04    1.02    1.43    30.24390    39.66997     8.44435
   661  H   1.0    0.05    1.02    1.43    29.59281    35.46604    10.36280
   662  N   5.0   -0.24    3.21    1.96    50.13894    11.79211    10.89158
   663  C   4.0    0.02    4.22    4.04    48.76768    14.10182    10.37190
   664  C   4.0    0.06    3.19    3.03    50.38997    16.49469    10.47349
   665  O   6.0   -0.32    1.13    1.80    49.42482    18.57838    10.29108
   666  C   4.0   -0.05    4.41    4.40    46.54973    14.32752    12.25515
   667  C   4.0   -0.03    4.22    4.03    44.55234    12.28265    12.13575
   668  C   4.0   -0.08    4.16    3.92    42.71201    12.62835    14.25469
   669  C   4.0   -0.08    4.14    3.87    43.22296    12.36692     9.55287
   670  H   1.0    0.08    1.05    1.44    50.78935    11.61964    12.56767
   671  H   1.0    0.04    1.07    1.44    47.99493    14.05993     8.48021
   672  H   1.0    0.03    1.05    1.44    47.16435    14.43594    14.15655
   673  H   1.0    0.05    1.05    1.44    45.66608    16.12859    11.96821
   674  H   1.0    0.04    1.06    1.44    45.38992    10.39852    12.33872
   675  H   1.0    0.04    1.02    1.43    41.92356    14.48214    14.02649
   676  H   1.0    0.03    1.01    1.43    43.66886    12.57328    16.03679
   677  H   1.0    0.04    1.01    1.43    41.36241    11.14560    14.35444
   678  H   1.0    0.04    1.00    1.43    42.42028    14.18841     9.17398
   679  H   1.0    0.04    1.01    1.43    41.87141    10.87931     9.43272
   680  H   1.0    0.03    1.01    1.43    44.56757    11.83326     8.13789
   681  N   5.0   -0.22    3.11    1.94    11.79909   -16.35912    10.73558
   682  C   4.0    0.00    4.16    3.92    13.50513   -14.13220    10.89105
   683  C   4.0    0.14    3.35    3.06    13.52970   -12.86390    13.45643
   684  O   6.0   -0.30    1.28    1.80    14.47241   -10.74440    13.66479
   685  H   1.0    0.07    1.03    1.43    12.63219   -18.02011    10.78068
   686  H   1.0    0.04    1.05    1.44    15.38250   -14.65831    10.47465
   687  H   1.0    0.05    1.05    1.44    13.03048   -12.62923     9.64272
   688  N   5.0   -0.15    3.50    2.08    12.51816   -14.06612    15.45394
   689  C   4.0    0.04    4.46    4.48    12.18277   -12.75154    17.78802
   690  C   4.0    0.15    3.42    3.08    14.41660   -13.04819    19.58983
   691  O   6.0   -0.31    1.22    1.80    15.47221   -15.07917    19.98314
   692  C   4.0   -0.05    4.37    4.32     9.79156   -13.80846    19.13087
   693  C   4.0   -0.03    4.20    4.01     7.33100   -13.39679    17.62744
   694  C   4.0   -0.09    4.13    3.85     5.16364   -14.71985    18.96695
   695  C   4.0   -0.08    4.13    3.87     6.80752   -10.61924    17.09118
   696  H   1.0    0.08    1.10    1.44    12.00167   -15.76641    15.46444
   697  H   1.0    0.07    1.10    1.44    12.13581   -10.75648    17.42153
   698  H   1.0    0.04    1.04    1.43    10.03325   -15.74509    19.55485
   699  H   1.0    0.04    1.04    1.43     9.52039   -12.83595    20.89677
   700  H   1.0    0.04    1.09    1.44     7.58002   -14.21196    15.81723
   701  H   1.0    0.03    1.02    1.43     3.44663   -14.50747    17.98820
   702  H   1.0    0.03    1.01    1.43     4.82581   -14.03964    20.84480
   703  H   1.0    0.03    1.01    1.43     5.44578   -16.71595    19.14353
   704  H   1.0    0.04    1.02    1.43     5.08933   -10.39067    16.08949
   705  H   1.0    0.05    1.02    1.43     8.26268    -9.85387    15.94874
   706  H   1.0    0.04    1.01    1.43     6.63890    -9.57031    18.79552
   707  N   5.0   -0.14    3.53    2.10    15.12765   -10.90968    20.71936
   708  C   4.0    0.04    4.36    4.32    17.02726   -10.79270    22.70412
   709  C   4.0    0.08    3.23    3.04    15.79746    -9.68317    25.03459
   710  O   6.0   -0.30    1.17    1.80    14.14215    -8.04022    24.90118
   711  C   4.0    0.06    4.25    4.09    19.27797    -9.15241    21.70185
   712  O   6.0   -0.27    2.15    1.85    20.99029    -9.10604    23.76250
   713  C   4.0   -0.07    4.13    3.87    18.57342    -6.55204    20.81855
   714  H   1.0    0.11    1.12    1.45    14.31952    -9.33564    20.24092
   715  H   1.0    0.05    1.08    1.44    17.51885   -12.73543    23.02655
   716  H   1.0    0.05    1.05    1.44    20.14329   -10.17166    20.16341
   717  H   1.0    0.15    1.08    1.44    22.29449    -8.01576    23.35381
   718  H   1.0    0.05    1.02    1.43    17.69535    -5.50107    22.29319
   719  H   1.0    0.06    1.02    1.43    17.31812    -6.62396    19.28000
   720  H   1.0    0.05    1.04    1.43    20.20440    -5.64620    20.26817
   721  N   5.0   -0.21    3.25    1.97    16.07794    -5.37786    30.57104
   722  C   4.0    0.03    4.32    4.24    17.61820    -3.25437    31.30778
   723  C   4.0    0.07    3.24    3.04    16.48867    -1.91449    33.58531
   724  O   6.0   -0.31    1.17    1.80    14.30892    -1.17650    33.51941
   725  C   4.0   -0.02    4.36    4.32    17.92145    -1.28680    29.11004
   726  C   4.0   -0.04    4.24    4.09    19.05845    -2.56660    26.82222
   727  C   4.0   -0.08    4.19    3.98    19.53866     0.92115    30.01808
   728  C   4.0   -0.08    4.09    3.78    19.40446    -0.73934    24.64496
   729  H   1.0    0.13    1.06    1.44    14.40344    -5.15731    29.94639
   730  H   1.0    0.04    1.08    1.44    19.39845    -4.08358    31.63135
   731  H   1.0    0.05    1.07    1.44    16.07192    -0.61055    28.62922
   732  H   1.0    0.05    1.04    1.43    20.80997    -3.42593    27.34657
   733  H   1.0    0.05    1.04    1.43    17.80497    -4.08515    26.29291
   734  H   1.0    0.04    1.04    1.43    18.58949     1.66792    31.60363
   735  H   1.0    0.04    1.02    1.43    19.73015     2.32595    28.63887
   736  H   1.0    0.05    1.01    1.43    21.38643     0.57047    30.65620
   737  H   1.0    0.04    1.04    1.43    20.73227     0.57460    25.18530
   738  H   1.0    0.04    1.02    1.43    17.74610     0.15033    24.09244
   739  H   1.0    0.04    1.01    1.43    20.17115    -1.71835    23.03250
   740  N   5.0   -0.21    3.28    1.98     9.53903    -3.79340    33.61535
   741  C   4.0    0.03    4.41    4.40     7.50039    -3.75118    31.78277
   742  C   4.0    0.15    3.45    3.09     8.55081    -4.94531    29.35687
   743  O   6.0   -0.30    1.27    1.80    10.67527    -4.50616    28.64491
   744  C   4.0    0.05    4.27    4.14     6.52358    -1.10242    31.43496
   745  O   6.0   -0.27    2.14    1.85     5.67247    -0.10110    33.75690
   746  C   4.0   -0.08    4.13    3.86     4.39660    -0.97562    29.50907
   747  H   1.0    0.13    1.08    1.44    11.07475    -2.99113    33.09570
   748  H   1.0    0.03    1.09    1.44     6.04286    -5.01776    32.30575
   749  H   1.0    0.06    1.06    1.44     8.07414     0.03959    30.74384
   750  H   1.0    0.11    1.04    1.43     4.28915    -1.01390    34.36143
   751  H   1.0    0.03    1.01    1.43     2.83976    -2.11933    30.10952
   752  H   1.0    0.05    1.01    1.43     4.97018    -1.68070    27.72031
   753  H   1.0    0.04    1.02    1.43     3.80064     0.91223    29.39059
   754  N   5.0   -0.15    3.50    2.08     6.96707    -6.50323    28.08080
   755  C   4.0    0.04    4.54    4.59     7.79178    -7.70100    25.77383
   756  C   4.0    0.15    3.43    3.09     7.80163    -5.73738    23.59746
   757  O   6.0   -0.32    1.22    1.80     5.81247    -4.61828    23.06175
   758  C   4.0   -0.04    4.15    3.91     6.11361    -9.89250    25.08080
   759  S   6.0   -0.10    2.33    3.10     6.27593   -12.46551    27.38106
   760  H   1.0    0.08    1.10    1.44     5.30468    -6.93010    28.52768
   761  H   1.0    0.06    1.08    1.44     9.66465    -8.45809    26.06316
   762  H   1.0    0.04    1.10    1.44     4.18286    -9.35906    25.04726
   763  H   1.0    0.04    1.09    1.44     6.53114   -10.47750    23.26110
   764  H   1.0    0.03    0.99    1.43     4.61004   -14.00058    27.48462
   765  N   5.0   -0.14    3.50    2.08     9.98671    -5.37559    22.53217
   766  C   4.0    0.04    4.44    4.45    10.44541    -3.47695    20.61126
   767  C   4.0    0.15    3.44    3.09    11.26739    -4.78424    18.19157
   768  O   6.0   -0.31    1.28    1.80    12.80178    -6.56779    18.26592
   769  C   4.0   -0.03    4.36    4.30    12.52381    -1.68378    21.56318
   770  C   4.0   -0.02    3.57    3.15    13.13790     0.37049    19.77802
   771  C   4.0   -0.04    3.47    3.10    15.27394     0.22244    18.20471
   772  C   4.0   -0.04    3.49    3.11    11.64457     2.51687    19.61241
   773  C   4.0   -0.03    3.46    3.10    15.81503     2.18273    16.52966
   774  C   4.0   -0.05    3.46    3.10    12.16958     4.43134    17.94809
   775  C   4.0    0.07    3.47    3.10    14.28388     4.32397    16.41533
   776  O   6.0   -0.24    2.15    1.85    14.90008     6.22723    14.85219
   777  H   1.0    0.12    1.13    1.45    11.42240    -6.28515    23.14474
   778  H   1.0    0.06    1.08    1.44     8.73813    -2.43155    20.34528
   779  H   1.0    0.05    1.05    1.44    11.79662    -0.91892    23.30405
   780  H   1.0    0.05    1.03    1.43    14.29347    -2.65054    22.00305
   781  H   1.0    0.05    1.05    1.44    16.54583    -1.24880    18.36322
   782  H   1.0    0.06    1.04    1.43    10.02505     2.60188    20.84026
   783  H   1.0    0.06    1.06    1.44    17.47293     2.16927    15.52326
   784  H   1.0    0.05    1.04    1.43    10.97579     6.05423    17.86835
   785  H   1.0    0.11    1.06    1.44    13.82400     7.61808    15.16289
   786  N   5.0   -0.15    3.43    2.04    10.26916    -3.94286    16.03846
   787  C   4.0    0.04    4.42    4.41    10.95281    -5.05329    13.60181
   788  C   4.0    0.16    3.43    3.09    13.40347    -3.95773    12.47928
   789  O   6.0   -0.31    1.25    1.80    13.67538    -1.70725    12.21813
   790  C   4.0   -0.03    4.33    4.26     8.76789    -4.62085    11.67745
   791  C   4.0   -0.01    3.57    3.15     9.44383    -5.62141     9.10018
   792  C   4.0   -0.04    3.50    3.11    10.57645    -4.20656     7.23870
   793  C   4.0   -0.03    3.49    3.11     9.03558    -8.19977     8.62265
   794  C   4.0   -0.02    3.44    3.09    11.38527    -5.27374     4.98322
   795  C   4.0   -0.03    3.46    3.10     9.76681    -9.28700     6.38409
   796  C   4.0    0.08    3.49    3.11    11.02827    -7.80307     4.54595
   797  O   6.0   -0.21    2.17    1.85    11.83765    -8.98086     2.36834
   798  H   1.0    0.11    1.12    1.45     9.05682    -2.62379    16.04890
   799  H   1.0    0.06    1.07    1.44    11.23845    -7.02839    14.07707
   800  H   1.0    0.05    1.05    1.44     7.05908    -5.38778    12.31945
   801  H   1.0    0.06    1.04    1.44     8.35951    -2.64600    11.56326
   802  H   1.0    0.06    1.06    1.44    10.97728    -2.32063     7.49253
   803  H   1.0    0.06    1.05    1.44     8.24045    -9.40584     9.99297
   804  H   1.0    0.07    1.06    1.44    12.25346    -4.16342     3.64057
   805  H   1.0    0.06    1.05    1.44     9.37794   -11.20196     6.16201
   806  H   1.0    0.13    1.15    1.45    11.68568   -10.60055     2.78661
   807  N   5.0   -0.15    3.47    2.06    15.07745    -5.71325    11.75666
   808  C   4.0    0.04    4.42    4.41    17.23508    -5.05544    10.16478
   809  C   4.0    0.20    3.29    3.05    17.21693    -6.49142     7.68382
   810  O   6.0   -0.30    1.20    1.80    18.14670    -5.49929     5.78319
   811  C   4.0   -0.04    4.37    4.33    19.70747    -5.31252    11.53137
   812  C   4.0   -0.02    4.20    4.00    20.38210    -3.08762    13.34569
   813  C   4.0   -0.07    4.15    3.90    22.43144    -3.88676    15.07364
   814  C   4.0   -0.07    4.12    3.84    20.93737    -0.70657    11.85362
   815  O   6.0   -0.24    2.13    1.84    16.38502    -8.76183     7.80243
   816  H   1.0    0.12    1.13    1.45    14.71136    -7.42448    12.14967
   817  H   1.0    0.05    1.09    1.44    17.08157    -3.07717     9.65659
   818  H   1.0    0.05    1.03    1.43    19.66015    -7.18566    12.38274
   819  H   1.0    0.05    1.05    1.44    21.24496    -5.43546    10.20894
   820  H   1.0    0.05    1.06    1.44    18.70328    -2.80774    14.51980
   821  H   1.0    0.06    1.02    1.43    24.10047    -4.33292    14.04241
   822  H   1.0    0.05    1.02    1.43    21.85089    -5.52792    16.10344
   823  H   1.0    0.04    1.01    1.43    22.85753    -2.40630    16.39718
   824  H   1.0    0.05    1.01    1.43    19.37914    -0.10179    10.71777
   825  H   1.0    0.05    1.02    1.43    22.56320    -1.05842    10.71908
   826  H   1.0    0.05    1.01    1.43    21.42924     0.78577    13.16045
   827  H   1.0    0.17    1.09    1.44    16.53234    -9.64073     6.12185
   828  N   5.0   -0.17    3.43    2.04    26.40218    27.05394    -9.62427
   829  C   4.0    0.02    4.43    4.42    28.98179    26.22265    -9.33775
   830  C   4.0    0.15    3.40    3.08    29.28687    23.44647    -8.65534
   831  O   6.0   -0.31    1.25    1.80    31.28873    22.39079    -8.98585
   832  C   4.0   -0.05    4.36    4.30    29.94732    27.93841    -7.13201
   833  C   4.0   -0.03    4.23    4.07    27.53377    28.46347    -5.50751
   834  C   4.0   -0.01    4.27    4.13    25.54029    28.73922    -7.51740
   835  H   1.0    0.03    1.05    1.44    30.10836    26.61142   -11.00146
   836  H   1.0    0.05    1.05    1.44    31.28254    27.00829    -6.04558
   837  H   1.0    0.03    1.04    1.43    30.69927    29.63976    -7.87557
   838  H   1.0    0.07    1.03    1.43    27.14767    26.83095    -4.35384
   839  H   1.0    0.05    1.04    1.43    27.73689    30.12276    -4.41725
   840  H   1.0    0.05    1.03    1.43    23.72124    28.09754    -6.88147
   841  H   1.0    0.04    1.04    1.43    25.33251    30.57415    -8.29527
   842  N   5.0   -0.15    3.42    2.03    27.29006    22.21816    -7.65850
   843  C   4.0    0.02    4.31    4.21    27.45233    19.55185    -7.08492
   844  C   4.0    0.16    3.35    3.07    29.15384    18.95460    -4.85865
   845  O   6.0   -0.31    1.22    1.80    30.52161    17.01817    -4.85244
   846  H   1.0    0.11    1.12    1.45    25.74166    22.95660    -7.24207
   847  H   1.0    0.05    1.04    1.43    25.66248    18.71776    -6.82497
   848  H   1.0    0.05    1.06    1.44    28.26995    18.71726    -8.71869
   849  N   5.0   -0.14    3.50    2.08    29.00802    20.49432    -2.86274
   850  C   4.0    0.04    4.46    4.48    30.72849    20.28468    -0.75986
   851  C   4.0    0.15    3.46    3.10    29.55163    19.88372     1.81733
   852  O   6.0   -0.31    1.36    1.80    30.38917    21.00683     3.67921
   853  C   4.0   -0.03    4.34    4.27    32.59173    22.55486    -0.68384
   854  C   4.0    0.16    3.25    3.04    31.23051    25.07953    -0.51828
   855  O   6.0   -0.27    1.23    1.80    28.88483    25.26256    -0.27980
   856  N   5.0   -0.21    3.21    1.96    32.74015    27.07019    -0.79701
   857  H   1.0    0.12    1.10    1.44    27.85461    21.85799    -2.77597
   858  H   1.0    0.05    1.10    1.44    31.75980    18.57274    -1.03713
   859  H   1.0    0.05    1.04    1.43    33.82655    22.37245     0.89767
   860  H   1.0    0.04    1.05    1.44    33.55919    22.40201    -2.44223
   861  H   1.0    0.08    1.07    1.44    34.49838    26.83738    -0.82810
   862  H   1.0    0.10    1.05    1.44    32.10990    28.77069    -0.75532
   863  N   5.0   -0.10    3.67    2.24    27.67003    18.15105     2.11122
   864  C   4.0    0.02    4.57    4.63    26.78855    16.28533     0.25734
   865  C   4.0    0.15    3.46    3.10    24.48436    17.16211    -1.26532
   866  O   6.0   -0.31    1.25    1.80    23.68879    15.75727    -2.99322
   867  C   4.0   -0.04    4.41    4.40    26.04992    14.04637     1.89445
   868  C   4.0   -0.04    4.34    4.28    25.07759    15.28222     4.26017
   869  C   4.0   -0.00    4.39    4.36    26.84363    17.46840     4.72970
   870  H   1.0    0.06    1.08    1.44    28.12413    15.83814    -1.15774
   871  H   1.0    0.05    1.05    1.44    24.61588    12.98505     1.00288
   872  H   1.0    0.04    1.04    1.43    27.67091    12.90141     2.30173
   873  H   1.0    0.06    1.05    1.44    23.19901    15.89070     3.99534
   874  H   1.0    0.05    1.04    1.43    24.98515    13.98992     5.80664
   875  H   1.0    0.05    1.04    1.43    25.89364    19.01754     5.56634
   876  H   1.0    0.05    1.04    1.43    28.57134    17.01139     5.67503
   877  N   5.0   -0.13    3.54    2.10    23.29379    19.26188    -0.52014
   878  C   4.0    0.05    4.50    4.54    21.02988    20.11092    -1.77022
   879  C   4.0    0.15    3.45    3.09    21.64286    21.85521    -3.95624
   880  O   6.0   -0.30    1.26    1.80    23.63088    23.16443    -4.01307
   881  C   4.0   -0.02    4.38    4.35    19.39150    21.57858     0.04730
   882  C   4.0    0.25    3.15    3.03    18.42884    20.19520     2.24704
   883  O   6.0   -0.30    1.25    1.80    18.72758    17.92624     2.49424
   884  O   6.0   -0.26    1.21    1.80    17.30929    21.57113     3.89434
   885  H   1.0    0.09    1.16    1.45    23.88825    20.03573     0.90492
   886  H   1.0    0.07    1.09    1.44    20.06953    18.43987    -2.35874
   887  H   1.0    0.06    1.04    1.43    20.47987    23.22795     0.69152
   888  H   1.0    0.06    1.06    1.44    17.91566    22.27883    -1.15323
   889  N   5.0   -0.14    3.42    2.03    19.94994    21.88745    -5.80454
   890  C   4.0    0.01    4.21    4.01    20.24210    23.51321    -7.98760
   891  C   4.0    0.06    3.20    3.04    17.77199    23.78097    -9.34252
   892  O   6.0   -0.30    1.21    1.80    15.76232    23.00494    -8.45059
   893  H   1.0    0.12    1.12    1.45    18.45172    20.82137    -5.78523
   894  H   1.0    0.04    1.05    1.44    20.70450    25.40747    -7.52344
   895  H   1.0    0.04    1.04    1.43    21.60334    22.69767    -9.24791
   896  N   5.0   -0.21    3.26    1.97    15.89302   -12.02854    -2.86274
   897  C   4.0    0.04    4.36    4.31    17.61349   -12.23818    -0.75986
   898  C   4.0    0.15    3.46    3.10    16.43663   -12.63914     1.81733
   899  O   6.0   -0.31    1.36    1.80    17.27417   -11.51602     3.67921
   900  C   4.0   -0.03    4.34    4.28    19.47672    -9.96800    -0.68384
   901  C   4.0    0.17    3.25    3.04    18.11551    -7.44332    -0.51828
   902  O   6.0   -0.25    1.23    1.80    15.76983    -7.26030    -0.27980
   903  N   5.0   -0.19    3.22    1.96    19.62515    -5.45267    -0.79701
   904  H   1.0    0.13    1.06    1.44    14.73961   -10.66486    -2.77597
   905  H   1.0    0.03    1.08    1.44    18.64479   -13.95012    -1.03713
   906  H   1.0    0.05    1.04    1.43    20.71155   -10.15041     0.89767
   907  H   1.0    0.03    1.05    1.44    20.44419   -10.12085    -2.44223
   908  H   1.0    0.09    1.07    1.44    21.38338    -5.68548    -0.82810
   909  H   1.0    0.13    1.07    1.44    18.99490    -3.75217    -0.75532
   910  N   5.0   -0.10    3.67    2.24    14.55503   -14.37181     2.11122
   911  C   4.0    0.02    4.57    4.63    13.67355   -16.23753     0.25734
   912  C   4.0    0.15    3.46    3.10    11.36936   -15.36075    -1.26532
   913  O   6.0   -0.31    1.22    1.80    10.57378   -16.76558    -2.99322
   914  C   4.0   -0.05    4.41    4.40    12.93492   -18.47649     1.89445
   915  C   4.0   -0.05    4.34    4.28    11.96259   -17.24064     4.26017
   916  C   4.0   -0.01    4.39    4.36    13.72863   -15.05446     4.72970
   917  H   1.0    0.04    1.08    1.44    15.00913   -16.68472    -1.15774
   918  H   1.0    0.04    1.05    1.44    11.50088   -19.53780     1.00288
   919  H   1.0    0.03    1.04    1.43    14.55591   -19.62145     2.30173
   920  H   1.0    0.06    1.05    1.44    10.08401   -16.63216     3.99534
   921  H   1.0    0.03    1.04    1.43    11.87015   -18.53294     5.80664
   922  H   1.0    0.05    1.04    1.43    12.77863   -13.50531     5.56634
   923  H   1.0    0.05    1.04    1.43    15.45634   -15.51147     5.67503
   924  N   5.0   -0.13    3.54    2.10    10.17879   -13.26098    -0.52014
   925  C   4.0    0.04    4.39    4.37     7.91487   -12.41194    -1.77022
   926  C   4.0    0.07    3.24    3.04     8.52786   -10.66765    -3.95624
   927  O   6.0   -0.27    1.12    1.80    10.51588    -9.35843    -4.01307
   928  C   4.0   -0.03    4.37    4.34     6.27650   -10.94428     0.04730
   929  C   4.0    0.24    3.15    3.03     5.31384   -12.32766     2.24704
   930  O   6.0   -0.30    1.21    1.80     5.61258   -14.59662     2.49424
   931  O   6.0   -0.27    1.21    1.80     4.19429   -10.95172     3.89434
   932  H   1.0    0.09    1.16    1.45    10.77325   -12.48713     0.90492
   933  H   1.0    0.05    1.08    1.44     6.95453   -14.08299    -2.35874
   934  H   1.0    0.06    1.04    1.43     7.36486    -9.29491     0.69152
   935  H   1.0    0.04    1.06    1.44     4.80066   -10.24403    -1.15323
   936  N   5.0   -0.22    3.27    1.97    37.51264    -3.79340    33.61535
   937  C   4.0    0.02    4.41    4.40    35.47400    -3.75118    31.78277
   938  C   4.0    0.14    3.44    3.09    36.52443    -4.94531    29.35687
   939  O   6.0   -0.31    1.25    1.80    38.64888    -4.50616    28.64491
   940  C   4.0    0.05    4.27    4.14    34.49719    -1.10242    31.43496
   941  O   6.0   -0.28    2.14    1.85    33.64609    -0.10110    33.75690
   942  C   4.0   -0.07    4.13    3.86    32.37021    -0.97562    29.50907
   943  H   1.0    0.09    1.05    1.44    39.04836    -2.99113    33.09570
   944  H   1.0    0.03    1.09    1.44    34.01648    -5.01776    32.30575
   945  H   1.0    0.05    1.06    1.44    36.04775     0.03959    30.74384
   946  H   1.0    0.11    1.04    1.43    32.26277    -1.01390    34.36143
   947  H   1.0    0.05    1.01    1.43    30.81338    -2.11933    30.10952
   948  H   1.0    0.05    1.01    1.43    32.94380    -1.68070    27.72031
   949  H   1.0    0.05    1.02    1.43    31.77426     0.91223    29.39059
   950  N   5.0   -0.15    3.50    2.08    34.94069    -6.50323    28.08080
   951  C   4.0    0.04    4.54    4.59    35.76539    -7.70100    25.77383
   952  C   4.0    0.15    3.43    3.09    35.77524    -5.73738    23.59746
   953  O   6.0   -0.33    1.28    1.80    33.78608    -4.61828    23.06175
   954  C   4.0   -0.04    4.15    3.91    34.08723    -9.89250    25.08080
   955  S   6.0   -0.11    2.33    3.10    34.24954   -12.46551    27.38106
   956  H   1.0    0.08    1.10    1.44    33.27829    -6.93010    28.52768
   957  H   1.0    0.04    1.08    1.44    37.63827    -8.45809    26.06316
   958  H   1.0    0.04    1.10    1.44    32.15647    -9.35906    25.04726
   959  H   1.0    0.04    1.09    1.44    34.50476   -10.47750    23.26110
   960  H   1.0    0.04    0.99    1.43    32.58366   -14.00058    27.48462
   961  N   5.0   -0.14    3.49    2.07    37.96033    -5.37559    22.53217
   962  C   4.0    0.04    4.44    4.45    38.41902    -3.47695    20.61126
   963  C   4.0    0.15    3.44    3.09    39.24100    -4.78424    18.19157
   964  O   6.0   -0.31    1.24    1.80    40.77539    -6.56779    18.26592
   965  C   4.0   -0.03    4.36    4.30    40.49742    -1.68378    21.56318
   966  C   4.0   -0.02    3.57    3.15    41.11152     0.37049    19.77802
   967  C   4.0   -0.04    3.47    3.10    43.24755     0.22244    18.20471
   968  C   4.0   -0.04    3.48    3.11    39.61818     2.51687    19.61241
   969  C   4.0   -0.03    3.46    3.10    43.78864     2.18273    16.52966
   970  C   4.0   -0.05    3.45    3.10    40.14319     4.43134    17.94809
   971  C   4.0    0.07    3.46    3.10    42.25750     4.32397    16.41533
   972  O   6.0   -0.26    2.13    1.84    42.87369     6.22723    14.85219
   973  H   1.0    0.09    1.10    1.44    39.39601    -6.28515    23.14474
   974  H   1.0    0.06    1.08    1.44    36.71174    -2.43155    20.34528
   975  H   1.0    0.05    1.05    1.44    39.77023    -0.91892    23.30405
   976  H   1.0    0.04    1.03    1.43    42.26709    -2.65054    22.00305
   977  H   1.0    0.05    1.05    1.44    44.51944    -1.24880    18.36322
   978  H   1.0    0.05    1.04    1.43    37.99866     2.60188    20.84026
   979  H   1.0    0.05    1.06    1.44    45.44654     2.16927    15.52326
   980  H   1.0    0.05    1.04    1.43    38.94940     6.05423    17.86835
   981  H   1.0    0.11    1.06    1.44    41.79761     7.61808    15.16289
   982  N   5.0   -0.14    3.43    2.04    38.24278    -3.94286    16.03846
   983  C   4.0    0.04    4.31    4.22    38.92642    -5.05329    13.60181
   984  C   4.0    0.08    3.22    3.04    41.37709    -3.95773    12.47928
   985  O   6.0   -0.30    1.14    1.80    41.64900    -1.70725    12.21813
   986  C   4.0   -0.03    4.33    4.25    36.74151    -4.62085    11.67745
   987  C   4.0   -0.01    3.57    3.15    37.41745    -5.62141     9.10018
   988  C   4.0   -0.04    3.50    3.11    38.55006    -4.20656     7.23870
   989  C   4.0   -0.05    3.49    3.11    37.00920    -8.19977     8.62265
   990  C   4.0   -0.05    3.44    3.09    39.35888    -5.27374     4.98322
   991  C   4.0   -0.06    3.46    3.10    37.74042    -9.28700     6.38409
   992  C   4.0    0.06    3.49    3.11    39.00188    -7.80307     4.54595
   993  O   6.0   -0.28    2.12    1.84    39.81126    -8.98086     2.36834
   994  H   1.0    0.11    1.12    1.45    37.03044    -2.62379    16.04890
   995  H   1.0    0.05    1.07    1.44    39.21207    -7.02839    14.07707
   996  H   1.0    0.06    1.05    1.44    35.03269    -5.38778    12.31945
   997  H   1.0    0.07    1.04    1.44    36.33312    -2.64600    11.56326
   998  H   1.0    0.06    1.06    1.44    38.95089    -2.32063     7.49253
   999  H   1.0    0.05    1.05    1.44    36.21407    -9.40584     9.99297
  1000  H   1.0    0.05    1.06    1.44    40.22708    -4.16342     3.64057
  1001  H   1.0    0.04    1.05    1.44    37.35155   -11.20196     6.16201
[...]
   697  H   0.995    C  689 0.946
   698  H   0.994    C  692 0.972
   699  H   0.998    C  692 0.973
   700  H   0.998    C  693 0.969
   701  H   0.997    C  694 0.984
   702  H   0.998    C  694 0.983
   703  H   0.996    C  694 0.983
   704  H   0.999    C  695 0.977
   705  H   1.000    C  695 0.982
   706  H   1.000    C  695 0.984
   707  N   3.475    C  690 1.309    C  708 0.978    H  714 0.901    O  691 0.201
   708  C   3.959    C  709 0.998    N  707 0.978    H  715 0.945    C  711 0.919    O  710 0.056
   709  C   3.892    O  710 1.870    C  708 0.998    H 1035 0.950
   710  O   2.051    C  709 1.870    C  708 0.056
   711  C   3.959    C  713 1.012    O  712 0.993    H  716 0.960    C  708 0.919
   712  O   1.929    C  711 0.993    H  717 0.855
   713  C   3.989    C  711 1.012    H  719 0.975    H  718 0.975    H  720 0.969
   714  H   0.952    N  707 0.901
   715  H   0.987    C  708 0.945
   716  H   0.998    C  711 0.960
   717  H   0.888    O  712 0.855
   718  H   0.997    C  713 0.975
   719  H   0.997    C  713 0.975
   720  H   0.994    C  713 0.969
   721  N   3.001    C  722 1.018    H 1036 0.947    H  729 0.944
   722  C   3.985    N  721 1.018    C  723 0.986    H  730 0.967    C  725 0.925    O  724 0.056
   723  C   3.896    O  724 1.881    C  722 0.986    H 1037 0.952
   724  O   2.045    C  723 1.881    C  722 0.056
   725  C   3.994    C  727 1.006    C  726 1.001    H  731 0.970    C  722 0.925
   726  C   3.998    C  728 1.015    C  725 1.001    H  732 0.976    H  733 0.968
   727  C   3.989    C  725 1.006    H  736 0.980    H  734 0.979    H  735 0.976
   728  C   3.992    C  726 1.015    H  738 0.987    H  739 0.981    H  737 0.981
   729  H   0.971    N  721 0.944
   730  H   0.995    C  722 0.967
   731  H   0.999    C  725 0.970
   732  H   0.998    C  726 0.976
   733  H   0.999    C  726 0.968
   734  H   0.999    C  727 0.979
   735  H   0.998    C  727 0.976
   736  H   0.995    C  727 0.980
   737  H   0.997    C  728 0.981
   738  H   0.999    C  728 0.987
   739  H   0.998    C  728 0.981
   740  N   2.983    C  741 1.018    H 1038 0.946    H  747 0.934
   741  C   3.990    N  740 1.018    H  748 0.958    C  744 0.956    C  742 0.940    O  743 0.053
   742  C   3.938    O  743 1.680    N  754 1.244    C  741 0.940
   743  O   1.995    C  742 1.680    N  754 0.188    C  741 0.053
   744  C   3.959    C  746 0.998    O  745 0.990    H  749 0.963    C  741 0.956
   745  O   1.941    C  744 0.990    H  750 0.868
   746  C   3.994    C  744 0.998    H  752 0.984    H  751 0.983    H  753 0.982
   747  H   0.968    N  740 0.934
   748  H   0.997    C  741 0.958
   749  H   0.999    C  744 0.963
   750  H   0.884    O  745 0.868
   751  H   0.997    C  746 0.983
   752  H   0.999    C  746 0.984
   753  H   0.997    C  746 0.982
   754  N   3.433    C  742 1.244    C  755 0.989    H  760 0.927    O  743 0.188
   755  C   3.973    C  758 1.002    N  754 0.989    H  761 0.953    C  756 0.906    O  757 0.053
   756  C   3.948    O  757 1.599    N  765 1.357    C  755 0.906
   757  O   1.919    C  756 1.599    N  765 0.202    C  755 0.053
   758  C   3.977    C  755 1.002    H  762 0.975    H  763 0.969    S  759 0.965
   759  S   1.910    C  758 0.965    H  764 0.894
   760  H   0.953    N  754 0.927
   761  H   0.995    C  755 0.953
   762  H   0.997    C  758 0.975
   763  H   0.997    C  758 0.969
   764  H   0.921    S  759 0.894
   765  N   3.510    C  756 1.357    C  766 0.975    H  777 0.892    O  757 0.202
   766  C   3.963    N  765 0.975    H  778 0.958    C  769 0.948    C  767 0.948
   767  C   3.949    O  768 1.578    N  786 1.339    C  766 0.948
   768  O   1.927    C  767 1.578    N  786 0.196
   769  C   3.987    C  770 1.018    H  780 0.965    H  779 0.964    C  766 0.948
   770  C   3.987    C  772 1.410    C  771 1.395    C  769 1.018    C  775 0.094
   771  C   3.990    C  773 1.461    C  770 1.395    H  781 0.970    C  774 0.104
   772  C   3.991    C  774 1.452    C  770 1.410    H  782 0.967    C  773 0.106
   773  C   3.989    C  771 1.461    C  775 1.355    H  783 0.965    C  772 0.106
   774  C   3.988    C  772 1.452    C  775 1.367    H  784 0.962    C  771 0.104    O  776 0.063
   775  C   3.939    C  774 1.367    C  773 1.355    O  776 1.082    C  770 0.094
   776  O   2.129    C  775 1.082    H  785 0.871    C  774 0.063
   777  H   0.943    N  765 0.892
   778  H   0.995    C  766 0.958
   779  H   0.995    C  769 0.964
   780  H   0.995    C  769 0.965
   781  H   0.998    C  771 0.970
   782  H   0.998    C  772 0.967
   783  H   0.996    C  773 0.965
   784  H   0.999    C  774 0.962
   785  H   0.905    O  776 0.871
   786  N   3.498    C  767 1.339    C  787 0.974    H  798 0.906    O  768 0.196
   787  C   3.960    N  786 0.974    C  790 0.961    H  799 0.954    C  788 0.924    O  789 0.054
   788  C   3.954    O  789 1.659    N  807 1.296    C  787 0.924
   789  O   1.991    C  788 1.659    N  807 0.203    C  787 0.054
   790  C   3.985    C  791 1.008    H  800 0.969    H  801 0.962    C  787 0.961
   791  C   3.988    C  792 1.448    C  793 1.368    C  790 1.008    C  796 0.097
   792  C   3.991    C  791 1.448    C  794 1.410    H  802 0.965    C  795 0.107
   793  C   3.992    C  795 1.497    C  791 1.368    H  803 0.970    C  794 0.104
   794  C   3.988    C  796 1.417    C  792 1.410    H  804 0.967    C  793 0.104    O  797 0.051
   795  C   3.989    C  793 1.497    C  796 1.331    H  805 0.963    C  792 0.107    O  797 0.052
   796  C   3.938    C  794 1.417    C  795 1.331    O  797 1.051    C  791 0.097
   797  O   2.093    C  796 1.051    H  806 0.853    C  795 0.052    C  794 0.051
   798  H   0.949    N  786 0.906
   799  H   0.997    C  787 0.954
   800  H   0.997    C  790 0.969
   801  H   0.995    C  790 0.962
   802  H   0.998    C  792 0.965
   803  H   0.999    C  793 0.970
   804  H   0.995    C  794 0.967
   805  H   0.998    C  795 0.963
   806  H   0.898    O  797 0.853
   807  N   3.462    C  788 1.296    C  808 0.974    H  816 0.901    O  789 0.203
   808  C   3.963    N  807 0.974    C  811 0.971    C  809 0.949    H  817 0.936
   809  C   3.919    O  810 1.650    O  815 1.261    C  808 0.949
   810  O   1.954    C  809 1.650    O  815 0.184
   811  C   3.983    C  812 0.978    C  808 0.971    H  818 0.971    H  819 0.970
   812  C   3.994    C  813 1.017    C  814 1.011    C  811 0.978    H  820 0.967
   813  C   3.994    C  812 1.017    H  821 0.982    H  822 0.981    H  823 0.980
   814  C   3.996    C  812 1.011    H  825 0.985    H  826 0.980    H  824 0.975
   815  O   2.260    C  809 1.261    H  827 0.749    O  810 0.184
   816  H   0.950    N  807 0.901
   817  H   0.992    C  808 0.936
   818  H   0.997    C  811 0.971
   819  H   0.996    C  811 0.970
   820  H   0.999    C  812 0.967
   821  H   0.998    C  813 0.982
   822  H   0.998    C  813 0.981
   823  H   0.997    C  813 0.980
   824  H   0.998    C  814 0.975
   825  H   0.998    C  814 0.985
   826  H   0.998    C  814 0.980
   827  H   0.849    O  815 0.749    O  899 0.069
   828  N   3.048    C  829 1.017    C  834 0.987    H 1011 0.953
   829  C   3.987    N  828 1.017    C  832 0.961    H  835 0.958    C  830 0.949
   830  C   3.938    O  831 1.647    N  842 1.267    C  829 0.949
   831  O   1.951    C  830 1.647    N  842 0.190
   832  C   3.994    C  833 0.999    H  836 0.983    H  837 0.980    C  829 0.961
   833  C   3.996    C  834 1.015    C  832 0.999    H  838 0.978    H  839 0.976
   834  C   3.985    C  833 1.015    N  828 0.987    H  841 0.979    H  840 0.970
   835  H   0.997    C  829 0.958
   836  H   0.999    C  832 0.983
   837  H   0.996    C  832 0.980
   838  H   0.998    C  833 0.978
   839  H   0.998    C  833 0.976
   840  H   0.999    C  834 0.970
   841  H   0.998    C  834 0.979
   842  N   3.446    C  830 1.267    C  843 1.000    H  846 0.913    O  831 0.190
   843  C   3.973    N  842 1.000    C  844 0.962    H  848 0.956    H  847 0.954
   844  C   3.947    O  845 1.611    N  849 1.301    C  843 0.962
   845  O   1.923    C  844 1.611    N  849 0.189
   846  H   0.953    N  842 0.913
   847  H   0.994    C  843 0.954
   848  H   0.989    C  843 0.956
   849  N   3.476    C  844 1.301    C  850 0.986    H  857 0.918    O  845 0.189
   850  C   3.967    N  849 0.986    C  853 0.976    C  851 0.960    H  858 0.926
   851  C   3.946    O  852 1.597    N  863 1.274    C  850 0.960
   852  O   1.984    C  851 1.597    N  863 0.183    H  243 0.064
   853  C   3.987    C  850 0.976    C  854 0.972    H  860 0.958    H  859 0.952    O  855 0.052
   854  C   3.949    O  855 1.634    N  856 1.317    C  853 0.972
   855  O   1.943    C  854 1.634    N  856 0.197    C  853 0.052
   856  N   3.403    C  854 1.317    H  862 0.929    H  861 0.926    O  855 0.197
   857  H   0.954    N  849 0.918
   858  H   0.988    C  850 0.926
   859  H   0.988    C  853 0.952
   860  H   0.991    C  853 0.958
   861  H   0.941    N  856 0.926
   862  H   0.948    N  856 0.929
   863  N   3.482    C  851 1.274    C  864 0.973    C  869 0.951    O  852 0.183
   864  C   3.965    C  867 0.976    N  863 0.973    C  865 0.943    H  870 0.942
   865  C   3.947    O  866 1.579    N  877 1.333    C  864 0.943
   866  O   1.912    C  865 1.579    N  877 0.191
   867  C   3.986    C  868 1.005    C  864 0.976    H  871 0.971    H  872 0.969
   868  C   3.991    C  869 1.012    C  867 1.005    H  873 0.976    H  874 0.968
   869  C   3.960    C  868 1.012    H  876 0.965    H  875 0.964    N  863 0.951
   870  H   0.990    C  864 0.942
   871  H   0.995    C  867 0.971
   872  H   0.990    C  867 0.969
   873  H   0.998    C  868 0.976
   874  H   0.995    C  868 0.968
   875  H   0.998    C  869 0.964
   876  H   0.991    C  869 0.965
   877  N   3.499    C  865 1.333    C  878 0.976    H  885 0.903    O  866 0.191
   878  C   3.961    N  877 0.976    C  881 0.972    C  879 0.947    H  886 0.943
   879  C   3.958    O  880 1.578    N  889 1.339    C  878 0.947
   880  O   1.909    C  879 1.578    N  889 0.195
   881  C   3.985    C  878 0.972    H  887 0.961    C  882 0.953    H  888 0.952
   882  C   3.943    O  883 1.498    O  884 1.462    C  881 0.953
   883  O   1.828    C  882 1.498    O  884 0.220
   884  O   1.767    C  882 1.462    O  883 0.220
   885  H   0.957    N  877 0.903
   886  H   0.994    C  878 0.943
   887  H   0.999    C  881 0.961
   888  H   0.996    C  881 0.952
   889  N   3.492    C  879 1.339    C  890 0.990    H  893 0.892    O  880 0.195
   890  C   3.962    C  891 1.026    N  889 0.990    H  895 0.928    H  894 0.913    O  892 0.066
   891  C   3.910    O  892 1.852    C  890 1.026    H 1012 0.947
   892  O   2.048    C  891 1.852    C  890 0.066
   893  H   0.946    N  889 0.892
   894  H   0.983    C  890 0.913
   895  H   0.984    C  890 0.928
   896  N   2.996    C  897 1.025    H  904 0.948    H 1013 0.946
   897  C   3.989    N  896 1.025    C  900 0.975    C  898 0.963    H  905 0.938
   898  C   3.940    O  899 1.574    N  910 1.294    C  897 0.963
   899  O   1.961    C  898 1.574    N  910 0.183    H  827 0.069
   900  C   3.995    C  897 0.975    C  901 0.972    H  907 0.960    H  906 0.959    O  902 0.053
   901  C   3.943    O  902 1.638    N  903 1.307    C  900 0.972
   902  O   1.939    C  901 1.638    N  903 0.194    C  900 0.053
   903  N   3.399    C  901 1.307    H  908 0.924    H  909 0.914    O  902 0.194
   904  H   0.971    N  896 0.948
   905  H   0.995    C  897 0.938
   906  H   0.994    C  900 0.959
   907  H   0.993    C  900 0.960
   908  H   0.957    N  903 0.924
   909  H   0.947    N  903 0.914
   910  N   3.497    C  898 1.294    C  911 0.970    C  916 0.950    O  899 0.183
   911  C   3.961    C  914 0.976    N  910 0.970    H  917 0.945    C  912 0.943
   912  C   3.948    O  913 1.611    N  924 1.312    C  911 0.943
   913  O   1.915    C  912 1.611    N  924 0.191
   914  C   3.985    C  915 1.006    C  911 0.976    H  919 0.972    H  918 0.971
   915  C   3.988    C  916 1.010    C  914 1.006    H  920 0.976    H  921 0.968
   916  C   3.961    C  915 1.010    H  923 0.967    H  922 0.965    N  910 0.950
   917  H   0.990    C  911 0.945
   918  H   0.993    C  914 0.971
   919  H   0.992    C  914 0.972
   920  H   0.997    C  915 0.976
   921  H   0.993    C  915 0.968
   922  H   0.998    C  916 0.965
   923  H   0.993    C  916 0.967
   924  N   3.487    C  912 1.312    C  925 0.981    H  932 0.906    O  913 0.191
   925  C   3.968    C  926 0.994    N  924 0.981    C  928 0.953    H  933 0.942    O  927 0.054
   926  C   3.917    O  927 1.840    C  925 0.994    H 1014 0.952
   927  O   1.993    C  926 1.840    C  925 0.054
   928  C   3.981    H  934 0.961    H  935 0.954    C  925 0.953    C  929 0.938
   929  C   3.946    O  930 1.534    O  931 1.443    C  928 0.938
   930  O   1.849    C  929 1.534    O  931 0.224
   931  O   1.773    C  929 1.443    O  930 0.224
   932  H   0.960    N  924 0.906
   933  H   0.991    C  925 0.942
   934  H   0.998    C  928 0.961
   935  H   0.995    C  928 0.954
   936  N   2.983    C  937 1.016    H  943 0.953    H 1015 0.945
   937  C   3.989    N  936 1.016    H  944 0.958    C  940 0.957    C  938 0.941    O  939 0.053
   938  C   3.940    O  939 1.683    N  950 1.246    C  937 0.941
   939  O   1.987    C  938 1.683    N  950 0.190    C  937 0.053
   940  C   3.958    C  942 0.998    O  941 0.990    H  945 0.961    C  937 0.957
   941  O   1.945    C  940 0.990    H  946 0.872
   942  C   3.994    C  940 0.998    H  948 0.983    H  947 0.983    H  949 0.977
   943  H   0.970    N  936 0.953
   944  H   0.997    C  937 0.958
   945  H   0.997    C  940 0.961
   946  H   0.888    O  941 0.872
   947  H   0.998    C  942 0.983
   948  H   0.999    C  942 0.983
   949  H   0.996    C  942 0.977
   950  N   3.438    C  938 1.246    C  951 0.989    H  956 0.929    O  939 0.190
   951  C   3.973    C  954 1.001    N  950 0.989    H  957 0.954    C  952 0.908    O  953 0.052
   952  C   3.950    O  953 1.580    N  961 1.368    C  951 0.908
   953  O   1.941    C  952 1.580    N  961 0.200    C  951 0.052
   954  C   3.977    C  951 1.001    H  958 0.974    H  959 0.974    S  955 0.968
   955  S   1.922    C  954 0.968    H  960 0.903
   956  H   0.955    N  950 0.929
   957  H   0.994    C  951 0.954
   958  H   0.997    C  954 0.974
   959  H   0.996    C  954 0.974
   960  H   0.930    S  955 0.903
   961  N   3.524    C  952 1.368    C  962 0.969    H  973 0.917    O  953 0.200
   962  C   3.956    N  961 0.969    H  974 0.957    C  965 0.948    C  963 0.945
   963  C   3.953    O  964 1.604    N  982 1.329    C  962 0.945
   964  O   1.917    C  963 1.604    N  982 0.202
   965  C   3.985    C  966 1.016    H  976 0.969    H  975 0.964    C  962 0.948
   966  C   3.987    C  968 1.410    C  967 1.397    C  965 1.016    C  971 0.094
   967  C   3.991    C  969 1.461    C  966 1.397    H  977 0.973    C  970 0.105
   968  C   3.992    C  970 1.453    C  966 1.410    H  978 0.967    C  969 0.105
   969  C   3.989    C  967 1.461    C  971 1.360    H  979 0.971    C  968 0.105
   970  C   3.988    C  968 1.453    C  971 1.371    H  980 0.962    C  967 0.105    O  972 0.061
   971  C   3.944    C  970 1.371    C  969 1.360    O  972 1.084    C  966 0.094
   972  O   2.115    C  971 1.084    H  981 0.861    C  970 0.061
   973  H   0.947    N  961 0.917
   974  H   0.993    C  962 0.957
   975  H   0.994    C  965 0.964
   976  H   0.995    C  965 0.969
   977  H   0.998    C  967 0.973
   978  H   0.998    C  968 0.967
   979  H   0.996    C  969 0.971
   980  H   0.998    C  970 0.962
   981  H   0.894    O  972 0.861
   982  N   3.497    C  963 1.329    C  983 0.972    H  994 0.906    O  964 0.202
   983  C   3.961    N  982 0.972    C  984 0.960    H  995 0.959    C  986 0.950    O  985 0.058
   984  C   3.904    O  985 1.928    C  983 0.960    H 1016 0.950
   985  O   2.075    C  984 1.928    C  983 0.058
   986  C   3.980    C  987 1.005    H  996 0.967    H  997 0.961    C  983 0.950
   987  C   3.987    C  988 1.451    C  989 1.366    C  986 1.005    C  992 0.097
   988  C   3.993    C  987 1.451    C  990 1.409    H  998 0.970    C  991 0.106
   989  C   3.992    C  991 1.501    C  987 1.366    H  999 0.972    C  990 0.104
   990  C   3.989    C  992 1.420    C  988 1.409    H 1000 0.968    C  989 0.104    O  993 0.052
   991  C   3.987    C  989 1.501    C  992 1.329    H 1001 0.968    C  988 0.106    O  993 0.052
   992  C   3.943    C  990 1.420    C  991 1.329    O  993 1.060    C  987 0.097
   993  O   2.069    C  992 1.060    H 1002 0.856    C  991 0.052    C  990 0.052
   994  H   0.949    N  982 0.906
   995  H   0.993    C  983 0.959
   996  H   0.997    C  986 0.967
   997  H   0.994    C  986 0.961
   998  H   0.998    C  988 0.970
   999  H   0.999    C  989 0.972
  1000  H   0.995    C  990 0.968
  1001  H   0.996    C  991 0.968
  1002  H   0.872    O  993 0.856
  1003  H   0.965    N    1 0.950
  1004  H   0.995    C   43 0.952
  1005  H   0.968    N   56 0.954
  1006  H   0.994    C   58 0.953
  1007  H   0.970    N   71 0.959
  1008  H   0.990    C  159 0.951
  1009  H   0.960    N  171 0.949
  1010  H   0.986    C  300 0.946
  1011  H   0.966    N  828 0.953
  1012  H   0.987    C  891 0.947
  1013  H   0.961    N  896 0.946
  1014  H   0.991    C  926 0.952
  1015  H   0.961    N  936 0.945
  1016  H   0.993    C  984 0.950
  1017  H   0.968    N  397 0.953
  1018  H   0.995    C  399 0.952
  1019  H   0.968    N  417 0.954
  1020  H   0.997    C  419 0.956
  1021  H   0.967    N  432 0.956
  1022  H   0.993    C  449 0.952
  1023  H   0.960    N  454 0.947
  1024  H   0.993    C  555 0.951
  1025  H   0.972    N  567 0.960
  1026  H   0.994    C  583 0.950
  1027  H   0.964    N  588 0.950
  1028  H   0.996    C  609 0.958
  1029  H   0.967    N  621 0.950
  1030  H   0.967    N  642 0.955
  1031  H   0.993    C  644 0.950
  1032  H   0.966    N  662 0.949
  1033  H   0.994    C  664 0.952
  1034  H   0.970    N  681 0.954
  1035  H   0.990    C  709 0.950
  1036  H   0.970    N  721 0.947
  1037  H   0.994    C  723 0.952
  1038  H   0.962    N  740 0.946
 
molecular dipole:
                 x           y           z       tot (Debye)
 q only:      -64.791     -43.885     -91.489
   full:      -65.987     -38.832     -90.776     301.849
molecular quadrupole (traceless):
                xx          xy          yy          xz          yz          zz
 q only:      275.941    -844.995     174.200   -1463.288   -1438.588    -450.141
  q+dip:      110.044    -815.421     368.328   -1540.518   -1311.889    -478.372
   full:      119.384    -816.601     359.947   -1535.016   -1312.547    -479.331
speedup  8.85
cpu  time for grad    5 m 45.8 s
wall time for grad    0 m 39.1 s

SCC energy    :   -1656.3993999
rep           :      21.5844623
ES            :       5.9488906
AES           :      -0.1385646
AXC           :       0.3795956
disp          :      -1.4439386
XB            :       0.0000000
fix           :       0.0000000
Gborn         :       0.0000000
Gsasa         :       0.0000000
Ghb           :       0.0000000
Gshift        :       0.0000000
Gsolv         :      -1.5308771     -960.64
Etot ala COSMO:   -1656.3993999
grad norm     :       1.5322202
total E       :   -1634.6492472
atomizationE  :     284.3740032   178447.38
(atE without considering molecular charge,
 total energy contains solvation terms)
H-L gap (eV)  :          0.2768

------------------------------------------------------------------------
 * finished run on 2019/02/22 at 14:20:00.337     
------------------------------------------------------------------------
 total:
 * wall-time:     0 d,  0 h,  0 min, 41.506 sec
 *  cpu-time:     0 d,  0 h,  5 min, 58.713 sec
 * ratio c/w:     8.642 speedup
 SCF:
 * wall-time:     0 d,  0 h,  0 min, 40.322 sec
 *  cpu-time:     0 d,  0 h,  5 min, 53.960 sec
 * ratio c/w:     8.778 speedup

