      -----------------------------------------------------------      
     |                   =====================                   |     
     |                           x T B                           |     
     |                   =====================                   |     
     |                         S. Grimme                         |     
     |          Mulliken Center for Theoretical Chemistry        |     
     |                    University of Bonn                     |     
     |                 Version 6.0.1 (SAW181210)                 |     
      -----------------------------------------------------------      

   This program is distributed in the hope that it will be useful,
   but WITHOUT ANY WARRANTY; without even the implied warranty of
   MERCHANTABILITY or FITNESS FOR A PARTICULAR PURPOSE.
   
   FOR NON-COMMERCIAL, ACADEMIA USE ONLY.
   
   Cite this work as:
   S. Grimme, C. Bannwarth, P. Shushkov, J. Comput. Theory Chem., 2017,
   13, 1989-2009.
   C. Bannwarth, S. Ehlert and S. Grimme., ChemRxiv, 2018, preprint.
   http://doi.org/10.26434/chemrxiv.7246238.v1
   
   for sTDA-xTB:
   S. Grimme and C. Bannwarth, J. Chem. Phys., 2016, 145, 054103.
   
   in the mass-spec context:
   V. Asgeirsson, C. Bauer and S. Grimme, Chem. Sci., 2017, 8, 4879.
   
   if GBSA is used:
   P. Shushkov, F. März and S. Grimme, unpublished.
   
   for ANC optimizer:
   S. Grimme, unpublished.
   Rational Function algorithm used in ANCopt:
   F. Eckert, P. Pulay, H.-J. Werner, J. Comput. Chem., 1997, 18, 1473.
   
   with help from (in alphabetical order)
   C. Bannwarth, F. Bohle, G. Brandenburg, E. Caldeweyher, M. Checinski,
   S. Dohm, S. Ehlert, S. Ehrlich, F. März, H. Neugebauer, J. Pisarek,
   P. Pracht, P. Shushkov, and S. Spicher.
   
 * started run on 2019/02/16 at 08:10:21.520     
========================================================================
 # omp threads = 12
========================================================================
number of atoms            : 79
number of electrons        : 202
charge                     : -1
spin                       : .0
first test random number   : .3414

########################################################################
# WARNING! Please study the warnings concerning your input carefully
#  - Process number higher than OMP_NUM_THREADS, I hope you know what you are doing.
########################################################################

           ------------------------------------------------- 
          |                 G F N 2 - x T B                 |
          | Geometry, Frequencies, Noncovalent interactions |
          |            JCTC 2018 parametrisation            |
           ------------------------------------------------- 
 
      method parameters     
 k(s)        :  1.8500
 k(p)        :  2.2300
 k(d)        :  2.2300
 k(f)        :  2.0000
 kEN (H0ij)  : -2.0000
 D4 a1       :  0.5200
 D4 a2       :  5.0000
 D4 s6       :  1.0000
 D4 s8       :  2.7000
 D4 s9       :  5.0000
 alphaj      :  2.0000

 Solvent             : h2o
 Using internal parameter file: .param_gbsa2_h2o
 Gsolv ref. state (COSMO-RS): gsolv [1 M gas/solution]
 temperature (mdtemp)       :    298.150000000000     
 dielectric constant        :    80.2000000000000     
 rho                        :    1.00000000000000     
 mass                       :    18.0000000000000     
 surface tension            :    15.5689454083859     
 probe radius               :   0.975313790000000     
 vdW radii scaling          :    1.00000000000000     
 Gshift (Eh)                :   1.857443126794793E-003
 c1                         :    1.55243817000000     
 soset                      :   0.130326360000000     
 HB correction              :  T

            Z     q(EN)     CN     RAES       Cart. coordinates
     1  O   6.0   -0.32    1.94    1.82    -2.16832    50.18832    10.55336
     2  H   1.0    0.13    0.97    1.43    -2.02413    51.18315    12.06706
     3  H   1.0    0.14    1.01    1.43    -3.91252    49.64458    10.38085
     4  N   5.0   -0.23    3.23    1.96     5.34865    61.13704     2.55174
     5  C   4.0    0.03    4.27    4.14     5.43081    61.25682     5.26928
     6  C   4.0    0.06    3.25    3.04     7.02728    63.34705     6.21061
     7  O   6.0   -0.31    1.12    1.80     6.39774    64.70231     7.99290
     8  C   4.0   -0.05    4.43    4.43     6.10903    58.77265     6.39936
     9  C   4.0   -0.03    4.18    3.95     4.13299    56.64650     5.88205
    10  C   4.0   -0.09    4.15    3.91     5.53569    54.31950     6.74285
    11  C   4.0   -0.07    4.09    3.78     1.73611    57.13350     7.44557
    12  H   1.0    0.07    1.02    1.43     5.97914    59.57919     1.63509
    13  H   1.0    0.05    1.07    1.44     3.52252    61.77603     5.93894
    14  H   1.0    0.03    1.03    1.43     7.95128    58.21757     5.64792
    15  H   1.0    0.04    1.04    1.43     6.27407    59.03760     8.43589
    16  H   1.0    0.03    1.05    1.44     3.69121    56.55756     3.87491
    17  H   1.0    0.03    1.00    1.43     4.37786    52.63121     6.55070
    18  H   1.0    0.02    1.00    1.43     7.24236    54.06497     5.63577
    19  H   1.0    0.03    1.01    1.43     6.04882    54.51469     8.72276
    20  H   1.0    0.04    1.00    1.43     0.47377    55.51396     7.37142
    21  H   1.0    0.05    1.00    1.43     2.22062    57.46489     9.41599
    22  H   1.0    0.04    1.00    1.43     0.72370    58.78345     6.77169
    23  N   5.0   -0.23    3.18    1.95    -9.55538    45.99323    14.60403
    24  C   4.0    0.02    4.23    4.06    -7.27057    46.11469    12.95269
    25  C   4.0    0.06    3.24    3.04    -8.06928    46.92197    10.32286
    26  O   6.0   -0.33    1.18    1.80    -6.99116    48.59166     9.05143
    27  C   4.0   -0.05    4.38    4.34    -5.89736    43.61984    13.08243
    28  C   4.0   -0.04    4.12    3.85    -3.82980    43.58578    11.14630
    29  S   6.0   -0.09    2.53    3.10    -2.60825    40.48210    10.76450
    30  C   4.0   -0.09    3.88    3.43    -5.00489    39.00369     8.77059
    31  H   1.0    0.06    1.02    1.43    -9.77149    44.39431    15.63928
    32  H   1.0    0.04    1.05    1.44    -6.05319    47.62986    13.69478
    33  H   1.0    0.03    1.03    1.43    -5.15605    43.35717    14.98714
    34  H   1.0    0.03    1.04    1.44    -7.26718    42.11925    12.68942
    35  H   1.0    0.04    1.09    1.44    -4.50636    44.22961     9.30527
    36  H   1.0    0.04    1.08    1.44    -2.25844    44.79969    11.69572
    37  H   1.0    0.02    1.05    1.44    -4.42994    37.04904     8.60954
    38  H   1.0    0.03    1.03    1.43    -6.85640    39.16045     9.63967
    39  H   1.0    0.03    1.04    1.43    -5.00528    39.91483     6.93271
    40  N   5.0   -0.21    3.19    1.95   -10.33331    53.62820     9.71054
    41  C   4.0    0.02    4.28    4.16    -8.30012    55.55668     9.76601
    42  C   4.0    0.14    3.46    3.10    -6.95905    55.67009     7.18613
    43  O   6.0   -0.30    1.23    1.80    -6.37320    57.72631     6.25650
    44  C   4.0   -0.04    4.24    4.07    -6.25715    54.79816    11.75616
    45  C   4.0   -0.03    4.19    3.99    -4.58062    57.07027    12.26478
    46  C   4.0    0.24    3.08    3.02    -2.36604    56.82779    14.16637
    47  O   6.0   -0.31    1.17    1.80    -2.17158    54.84461    15.38418
    48  O   6.0   -0.31    1.16    1.80    -0.90907    58.71403    14.31742
    49  H   1.0    0.08    1.02    1.43   -10.31962    52.25846    11.05083
    50  H   1.0    0.04    1.04    1.43    -9.10131    57.40965    10.18982
    51  H   1.0    0.04    1.02    1.43    -7.18119    54.18707    13.49311
    52  H   1.0    0.06    1.04    1.43    -5.14346    53.25772    10.99711
    53  H   1.0    0.06    1.03    1.43    -3.73374    57.73582    10.49888
    54  H   1.0    0.04    1.03    1.43    -5.73248    58.63328    12.98410
    55  N   5.0   -0.15    3.49    2.07    -6.42453    53.46075     6.10435
    56  C   4.0    0.04    4.35    4.29    -5.27002    53.38692     3.68957
    57  C   4.0    0.08    3.25    3.04    -6.95975    54.69846     1.73581
    58  O   6.0   -0.31    1.11    1.80    -6.06152    56.11214     0.11482
    59  C   4.0   -0.05    4.35    4.28    -4.86021    50.61246     2.85807
    60  C   4.0   -0.02    4.20    4.00    -2.72108    49.34595     4.38049
    61  C   4.0   -0.08    4.18    3.96    -2.56288    46.62532     3.58762
    62  C   4.0   -0.08    4.15    3.91    -0.11585    50.37792     3.80455
    63  H   1.0    0.10    1.09    1.44    -6.82542    51.82685     7.01845
    64  H   1.0    0.05    1.05    1.44    -3.47897    54.42967     3.71230
    65  H   1.0    0.04    1.03    1.43    -6.63021    49.60171     3.14345
    66  H   1.0    0.03    1.03    1.43    -4.37585    50.60704     0.85554
    67  H   1.0    0.06    1.06    1.44    -3.09418    49.51326     6.39266
    68  H   1.0    0.03    1.00    1.43    -1.11346    45.64246     4.66551
    69  H   1.0    0.03    1.00    1.43    -4.34249    45.63656     3.91537
    70  H   1.0    0.02    1.00    1.43    -2.10820    46.47445     1.58875
    71  H   1.0    0.03    1.01    1.43     1.26720    49.35383     4.92743
    72  H   1.0    0.03    1.00    1.43     0.35588    50.15474     1.82057
    73  H   1.0    0.04    1.00    1.43     0.08076    52.37140     4.28097
    74  H   1.0    0.08    1.08    1.44     3.73927    61.29482     2.02491
    75  H   1.0    0.04    1.05    1.44     8.69267    63.70610     5.39290
    76  H   1.0    0.08    1.06    1.44    -9.51518    47.27268    15.72384
    77  H   1.0    0.04    1.05    1.44    -9.55430    46.09981     9.49231
    78  H   1.0    0.08    1.07    1.44   -11.84403    54.39097     9.87923
    79  H   1.0    0.04    1.04    1.44    -8.82791    54.41482     1.76008

  Z AO/shell   Hii/eV     exponent
  1     Wed Apr 25 08:07:45 CEST 2018   EN: 2.200 GM2: 0.406  GM3: 0.0800  RAES: 1.40
     1s    -10.707211    1.230000
  6     Wed Apr 25 08:07:45 CEST 2018   EN: 2.550 GM2: 0.538  GM3: 0.1500  RAES: 3.00
     2s    -13.970922    2.096432
     2p    -10.063292    1.800000
  7     Wed Apr 25 08:07:45 CEST 2018   EN: 3.040 GM2: 0.461  GM3:-0.0640  RAES: 1.90
     2s    -16.686243    2.339881
     2p    -12.523956    2.014332
  8     Wed Apr 25 08:07:45 CEST 2018   EN: 3.440 GM2: 0.452  GM3:-0.0517  RAES: 1.80
     2s    -20.229985    2.439742
     2p    -15.503117    2.137023
 16     Tue Apr 24 11:44:34 CEST 2018   EN: 2.580 GM2: 0.340  GM3:-0.0502  RAES: 3.10
     3s    -20.029654    1.981333
     3p    -11.377694    2.025643
     3d     -0.420282    1.702555
 no old-style atom pair restraining (fixing) potential

molecular fragmentation (1/2 indicates fragments):
111222222222222222222222222222222222222222222222222222222222222222222222
2222222
# atoms in fragment 1/2:     3    76
 fragment masses (1/2) :       18.02      491.66
CMA distance (Bohr)    :   3.456
constraining FC (au)   :  0.0500
           ------------------------------------------------- 
          |        Self-Consistent Charge Iterations        |
           ------------------------------------------------- 

 Ncao       : 187
 Nao        : 186
 Nshell     : 114
 Nel        : 202
 T(el)      :   500.0
 intcut     :    35.0
 scfconv/Eh :  0.100E-06
   qconv/e  :  0.100E-04
 intneglect :  0.100E-08
 broydamp   :      0.400
 iter      E             dE          RMSdq      gap      omega  full diag
   1   -114.7080057 -0.114708E+03  0.463E+00    3.11       0.0  T
   2   -115.0086127 -0.300607E+00  0.218E+00    1.46       1.0  T
   3   -115.0298934 -0.212807E-01  0.128E+00    1.75       1.0  T
   4   -115.0527345 -0.228410E-01  0.264E-01    1.07       1.0  T
   5   -115.0537644 -0.102996E-02  0.133E-01    1.21       1.0  T
   6   -115.0539672 -0.202813E-03  0.505E-02    1.20       1.0  T
   7   -115.0540027 -0.355210E-04  0.237E-02    1.21       1.0  T
   8   -115.0540105 -0.773746E-05  0.924E-03    1.22       1.2  T
   9   -115.0540114 -0.869156E-06  0.464E-03    1.22       2.4  T
  10   -115.0540115 -0.198445E-06  0.214E-03    1.22       5.3  T
  11   -115.0540116 -0.514185E-07  0.991E-04    1.22      11.4  T
  12   -115.0540116 -0.736820E-08  0.418E-04    1.22      26.9  T
  13   -115.0540116 -0.150011E-08  0.200E-04    1.22      56.3  T
  14   -115.0540116 -0.475552E-09  0.620E-05    1.22     181.5  T
  15   -115.0540116 -0.304397E-10  0.267E-05    1.22     421.3  T
speedup 11.92
cpu  time for SCC    1.31 s
wall time for SCC    0.11 s

   *** convergence criteria satisfied after 15 iterations ***

          eigenvalues
 #    :          89         90         91         92         93         94         95         96
 occ. :        2.000      2.000      2.000      2.000      2.000      2.000      2.000      2.000
 eps  :       -11.682    -11.516    -11.491    -11.289    -11.164    -10.826    -10.657    -10.511
 #    :          97         98         99        100        101        102        103        104
 occ. :        2.000      2.000      2.000      2.000      2.000      0.000      0.000      0.000
 eps  :       -10.232    -10.222     -9.997     -9.722     -9.659     -8.435     -7.793     -7.680
 #    :         105        106        107        108        109        110        111        112
 occ. :        0.000      0.000      0.000      0.000      0.000      0.000      0.000      0.000
 eps  :        -5.942     -5.182     -4.538     -3.672     -0.288      0.063      0.176      0.307


   #   Z            q   n(s)   n(p)   n(d)      C6AA      α(0)
   1   8 O     -0.625  1.750  4.874  0.000    25.782     6.853
   2   1 H      0.286  0.714  0.000  0.000     0.765     1.374
   3   1 H      0.313  0.687  0.000  0.000     0.684     1.299
   4   7 N     -0.390  1.302  4.088  0.000    30.107     8.149
   5   6 C      0.049  1.038  2.913  0.000    19.768     6.332
   6   6 C      0.202  1.084  2.713  0.000    23.695     7.972
   7   8 O     -0.403  1.766  4.637  0.000    21.744     6.252
   8   6 C     -0.067  1.062  3.005  0.000    21.757     6.637
   9   6 C     -0.006  1.059  2.947  0.000    20.652     6.464
  10   6 C     -0.115  1.041  3.074  0.000    22.727     6.793
  11   6 C     -0.090  1.033  3.057  0.000    22.274     6.730
  12   1 H      0.175  0.825  0.000  0.000     1.244     1.747
  13   1 H      0.040  0.960  0.000  0.000     2.444     2.445
  14   1 H      0.059  0.941  0.000  0.000     2.212     2.326
  15   1 H      0.034  0.966  0.000  0.000     2.525     2.485
  16   1 H      0.044  0.956  0.000  0.000     2.390     2.418
  17   1 H      0.046  0.954  0.000  0.000     2.365     2.405
  18   1 H      0.054  0.946  0.000  0.000     2.267     2.355
  19   1 H      0.036  0.964  0.000  0.000     2.506     2.475
  20   1 H      0.030  0.970  0.000  0.000     2.588     2.516
  21   1 H      0.021  0.979  0.000  0.000     2.722     2.580
  22   1 H      0.022  0.978  0.000  0.000     2.708     2.573
  23   7 N     -0.393  1.323  4.069  0.000    30.168     8.157
  24   6 C      0.039  1.056  2.905  0.000    19.929     6.358
  25   6 C      0.194  1.098  2.708  0.000    23.859     7.999
  26   8 O     -0.381  1.763  4.619  0.000    21.307     6.189
  27   6 C     -0.060  1.051  3.009  0.000    21.617     6.611
  28   6 C      0.001  1.051  2.948  0.000    20.565     6.456
  29  16 S     -0.228  1.914  4.261  0.054   150.825    20.670
  30   6 C     -0.066  1.058  3.008  0.000    21.838     6.666
  31   1 H      0.180  0.820  0.000  0.000     1.213     1.725
  32   1 H      0.040  0.960  0.000  0.000     2.445     2.445
  33   1 H      0.064  0.936  0.000  0.000     2.154     2.295
  34   1 H      0.069  0.931  0.000  0.000     2.094     2.263
  35   1 H      0.044  0.956  0.000  0.000     2.400     2.423
  36   1 H      0.052  0.948  0.000  0.000     2.289     2.366
  37   1 H      0.081  0.919  0.000  0.000     1.969     2.194
  38   1 H      0.064  0.936  0.000  0.000     2.158     2.297
  39   1 H      0.061  0.939  0.000  0.000     2.188     2.313
  40   7 N     -0.394  1.319  4.075  0.000    30.219     8.164
  41   6 C      0.028  1.072  2.900  0.000    20.114     6.389
  42   6 C      0.271  1.048  2.680  0.000    22.416     7.754
  43   8 O     -0.529  1.763  4.766  0.000    24.430     6.627
  44   6 C     -0.056  1.057  2.999  0.000    21.580     6.614
  45   6 C     -0.083  1.063  3.020  0.000    22.087     6.691
  46   6 C      0.370  1.027  2.603  0.000    20.728     7.451
  47   8 O     -0.635  1.760  4.876  0.000    27.005     6.967
  48   8 O     -0.674  1.786  4.888  0.000    28.013     7.096
  49   1 H      0.157  0.843  0.000  0.000     1.356     1.824
  50   1 H      0.027  0.973  0.000  0.000     2.627     2.535
  51   1 H      0.034  0.966  0.000  0.000     2.525     2.485
  52   1 H      0.052  0.948  0.000  0.000     2.290     2.366
  53   1 H      0.013  0.987  0.000  0.000     2.849     2.640
  54   1 H      0.009  0.991  0.000  0.000     2.899     2.663
  55   7 N     -0.162  1.236  3.926  0.000    24.506     7.352
  56   6 C      0.036  1.053  2.911  0.000    19.975     6.363
  57   6 C      0.205  1.089  2.706  0.000    23.654     7.965
  58   8 O     -0.378  1.760  4.618  0.000    21.252     6.181
  59   6 C     -0.078  1.067  3.011  0.000    21.981     6.673
  60   6 C     -0.014  1.052  2.962  0.000    20.795     6.486
  61   6 C     -0.111  1.041  3.070  0.000    22.650     6.780
  62   6 C     -0.110  1.039  3.070  0.000    22.624     6.777
  63   1 H      0.237  0.763  0.000  0.000     0.936     1.516
  64   1 H      0.074  0.926  0.000  0.000     2.048     2.238
  65   1 H      0.070  0.930  0.000  0.000     2.086     2.259
  66   1 H      0.067  0.933  0.000  0.000     2.122     2.278
  67   1 H      0.058  0.942  0.000  0.000     2.225     2.332
  68   1 H      0.045  0.955  0.000  0.000     2.382     2.414
  69   1 H      0.034  0.966  0.000  0.000     2.530     2.488
  70   1 H      0.049  0.951  0.000  0.000     2.329     2.386
  71   1 H      0.043  0.957  0.000  0.000     2.415     2.430
  72   1 H      0.048  0.952  0.000  0.000     2.345     2.395
  73   1 H      0.022  0.978  0.000  0.000     2.701     2.570
  74   1 H      0.179  0.821  0.000  0.000     1.217     1.728
  75   1 H      0.078  0.922  0.000  0.000     1.998     2.210
  76   1 H      0.178  0.822  0.000  0.000     1.226     1.734
  77   1 H      0.102  0.898  0.000  0.000     1.766     2.078
  78   1 H      0.188  0.812  0.000  0.000     1.169     1.694
  79   1 H      0.075  0.925  0.000  0.000     2.028     2.227

 Mol. C6AA /au·bohr⁶  :      54911.697212
 Mol. C8AA /au·bohr⁸  :    1238775.176170
 Mol. α(0) /au        :        350.428114

 
 Wiberg/Mayer (AO) data. WBOs > 0.1 written file <wbo>
 largest (>0.05) Wiberg bond orders for each atom
           total WBO             WBO to atom ...
     1  O   1.814    H    2 0.908    H    3 0.852
     2  H   0.918    O    1 0.908
     3  H   0.902    O    1 0.852
     4  N   2.992    C    5 1.008    H   74 0.956    H   12 0.948
     5  C   3.988    N    4 1.008    C    6 1.001    C    8 0.963    H   13 0.945    O    7 0.051
     6  C   3.895    O    7 1.865    C    5 1.001    H   75 0.951
     7  O   2.005    C    6 1.865    C    5 0.051
     8  C   3.990    C    9 0.980    H   15 0.973    H   14 0.970    C    5 0.963
     9  C   3.994    C   10 1.012    C   11 1.009    C    8 0.980    H   16 0.966
    10  C   3.993    C    9 1.012    H   19 0.986    H   18 0.983    H   17 0.981
    11  C   3.995    C    9 1.009    H   21 0.986    H   22 0.983    H   20 0.982
    12  H   0.969    N    4 0.948
    13  H   0.998    C    5 0.945
    14  H   0.997    C    8 0.970
    15  H   0.999    C    8 0.973
    16  H   0.998    C    9 0.966
    17  H   0.996    C   10 0.981
    18  H   0.997    C   10 0.983
    19  H   0.999    C   10 0.986
    20  H   0.999    C   11 0.982
    21  H   1.000    C   11 0.986
    22  H   1.000    C   11 0.983
    23  N   2.987    C   24 0.993    H   76 0.959    H   31 0.951
    24  C   3.985    N   23 0.993    C   25 0.993    C   27 0.966    H   32 0.958
    25  C   3.880    O   26 1.841    C   24 0.993    H   77 0.952
    26  O   2.063    C   25 1.841
    27  C   3.989    C   28 1.013    H   33 0.971    C   24 0.966    H   34 0.965
    28  C   3.984    C   27 1.013    S   29 0.997    H   36 0.969    H   35 0.964
    29  S   2.103    C   30 1.007    C   28 0.997
    30  C   3.972    S   29 1.007    H   39 0.984    H   38 0.980    H   37 0.977
    31  H   0.967    N   23 0.951
    32  H   0.998    C   24 0.958
    33  H   0.996    C   27 0.971
    34  H   0.995    C   27 0.965
    35  H   0.998    C   28 0.964
    36  H   0.997    C   28 0.969
    37  H   0.993    C   30 0.977
    38  H   0.996    C   30 0.980
    39  H   0.996    C   30 0.984
    40  N   2.984    C   41 1.007    H   49 0.957    H   78 0.956
    41  C   3.984    N   40 1.007    C   44 0.970    H   50 0.968    C   42 0.941
    42  C   3.944    O   43 1.609    N   55 1.317    C   41 0.941
    43  O   1.923    C   42 1.609    N   55 0.193
    44  C   3.994    C   45 1.013    H   51 0.974    C   41 0.970    H   52 0.961
    45  C   3.986    C   44 1.013    H   53 0.969    H   54 0.966    C   46 0.919    O   47 0.054    O   48 0.050
    46  C   3.933    O   47 1.512    O   48 1.476    C   45 0.919
    47  O   1.801    C   46 1.512    O   48 0.213    C   45 0.054
    48  O   1.762    C   46 1.476    O   47 0.213    C   45 0.050
    49  H   0.975    N   40 0.957
    50  H   0.999    C   41 0.968
    51  H   0.999    C   44 0.974
    52  H   0.997    C   44 0.961
    53  H   1.000    C   45 0.969
    54  H   1.000    C   45 0.966
    55  N   3.482    C   42 1.317    C   56 0.992    H   63 0.890    O   43 0.193
    56  C   3.965    N   55 0.992    C   57 0.974    C   59 0.954    H   64 0.943    O   58 0.056
    57  C   3.897    O   58 1.885    C   56 0.974    H   79 0.954
    58  O   2.027    C   57 1.885    C   56 0.056
    59  C   3.980    C   60 0.986    H   66 0.972    H   65 0.971    C   56 0.954
    60  C   3.992    C   62 1.011    C   61 1.009    C   59 0.986    H   67 0.956
    61  C   3.993    C   60 1.009    H   69 0.985    H   70 0.984    H   68 0.983
    62  C   3.996    C   60 1.011    H   72 0.984    H   71 0.983    H   73 0.979
    63  H   0.944    N   55 0.890
    64  H   0.994    C   56 0.943
    65  H   0.995    C   59 0.971
    66  H   0.995    C   59 0.972
    67  H   0.997    C   60 0.956
    68  H   0.996    C   61 0.983
    69  H   0.999    C   61 0.985
    70  H   0.997    C   61 0.984
    71  H   0.998    C   62 0.983
    72  H   0.997    C   62 0.984
    73  H   1.000    C   62 0.979
    74  H   0.968    N    4 0.956
    75  H   0.994    C    6 0.951
    76  H   0.968    N   23 0.959
    77  H   0.990    C   25 0.952
    78  H   0.964    N   40 0.956
    79  H   0.994    C   57 0.954
 
molecular dipole:
                 x           y           z       tot (Debye)
 q only:       -0.254     -62.659     -13.420
   full:       -1.102     -62.248     -12.458     161.385
molecular quadrupole (traceless):
                xx          xy          yy          xz          yz          zz
 q only:     2051.941      29.150   -3784.326     -27.251   -1221.124    1732.385
  q+dip:     2031.815     -42.901   -3765.911     -46.186   -1135.787    1734.097
   full:     2031.569     -44.559   -3764.318     -46.103   -1134.607    1732.749
speedup 11.91
cpu  time for grad    1.45 s
wall time for grad    0.12 s

SCC energy    :    -115.0568262
rep           :       1.4047562
ES            :       0.4563393
AES           :      -0.0056193
AXC           :       0.0488122
disp          :      -0.0748303
XB            :       0.0000000
fix           :       0.0000000
Gborn         :       0.0000000
Gsasa         :       0.0000000
Ghb           :       0.0000000
Gshift        :       0.0000000
Gsolv         :      -0.1529102      -95.95
Etot ala COSMO:    -115.0568262
grad norm     :       0.4012983
total E       :    -113.6489610
atomizationE  :      20.6109904    12933.59
(atE without considering molecular charge,
 total energy contains solvation terms)
H-L gap (eV)  :          1.2239

------------------------------------------------------------------------
 * finished run on 2019/02/16 at 08:10:21.716     
------------------------------------------------------------------------
 total:
 * wall-time:     0 d,  0 h,  0 min,  0.195 sec
 *  cpu-time:     0 d,  0 h,  0 min,  2.113 sec
 * ratio c/w:    10.857 speedup
 SCF:
 * wall-time:     0 d,  0 h,  0 min,  0.143 sec
 *  cpu-time:     0 d,  0 h,  0 min,  1.669 sec
 * ratio c/w:    11.701 speedup

