      -----------------------------------------------------------      
     |                   =====================                   |     
     |                           x T B                           |     
     |                   =====================                   |     
     |                         S. Grimme                         |     
     |          Mulliken Center for Theoretical Chemistry        |     
     |                    University of Bonn                     |     
     |                 Version 6.0.1 (SAW181210)                 |     
      -----------------------------------------------------------      

   This program is distributed in the hope that it will be useful,
   but WITHOUT ANY WARRANTY; without even the implied warranty of
   MERCHANTABILITY or FITNESS FOR A PARTICULAR PURPOSE.
   
   FOR NON-COMMERCIAL, ACADEMIA USE ONLY.
   
   Cite this work as:
   S. Grimme, C. Bannwarth, P. Shushkov, J. Comput. Theory Chem., 2017,
   13, 1989-2009.
   C. Bannwarth, S. Ehlert and S. Grimme., ChemRxiv, 2018, preprint.
   http://doi.org/10.26434/chemrxiv.7246238.v1
   
   for sTDA-xTB:
   S. Grimme and C. Bannwarth, J. Chem. Phys., 2016, 145, 054103.
   
   in the mass-spec context:
   V. Asgeirsson, C. Bauer and S. Grimme, Chem. Sci., 2017, 8, 4879.
   
   if GBSA is used:
   P. Shushkov, F. März and S. Grimme, unpublished.
   
   for ANC optimizer:
   S. Grimme, unpublished.
   Rational Function algorithm used in ANCopt:
   F. Eckert, P. Pulay, H.-J. Werner, J. Comput. Chem., 1997, 18, 1473.
   
   with help from (in alphabetical order)
   C. Bannwarth, F. Bohle, G. Brandenburg, E. Caldeweyher, M. Checinski,
   S. Dohm, S. Ehlert, S. Ehrlich, F. März, H. Neugebauer, J. Pisarek,
   P. Pracht, P. Shushkov, and S. Spicher.
   
 * started run on 2019/02/16 at 08:11:02.256     
========================================================================
 # omp threads = 12
========================================================================
number of atoms            : 278
number of electrons        : 738
charge                     : 1
spin                       : .0
first test random number   : .1421

########################################################################
# WARNING! Please study the warnings concerning your input carefully
#  - Process number higher than OMP_NUM_THREADS, I hope you know what you are doing.
########################################################################

           ------------------------------------------------- 
          |                 G F N 2 - x T B                 |
          | Geometry, Frequencies, Noncovalent interactions |
          |            JCTC 2018 parametrisation            |
           ------------------------------------------------- 
 
      method parameters     
 k(s)        :  1.8500
 k(p)        :  2.2300
 k(d)        :  2.2300
 k(f)        :  2.0000
 kEN (H0ij)  : -2.0000
 D4 a1       :  0.5200
 D4 a2       :  5.0000
 D4 s6       :  1.0000
 D4 s8       :  2.7000
 D4 s9       :  5.0000
 alphaj      :  2.0000

 Solvent             : h2o
 Using internal parameter file: .param_gbsa2_h2o
 Gsolv ref. state (COSMO-RS): gsolv [1 M gas/solution]
 temperature (mdtemp)       :    298.150000000000     
 dielectric constant        :    80.2000000000000     
 rho                        :    1.00000000000000     
 mass                       :    18.0000000000000     
 surface tension            :    15.5689454083859     
 probe radius               :   0.975313790000000     
 vdW radii scaling          :    1.00000000000000     
 Gshift (Eh)                :   1.857443126794793E-003
 c1                         :    1.55243817000000     
 soset                      :   0.130326360000000     
 HB correction              :  T

            Z     q(EN)     CN     RAES       Cart. coordinates
     1  N   5.0   -0.21    3.24    1.97     9.94744    40.43287     9.28255
     2  C   4.0    0.03    4.34    4.26    10.72294    39.90758     6.79643
     3  C   4.0    0.14    3.43    3.09    11.86036    37.24032     6.53016
     4  O   6.0   -0.32    1.27    1.80    11.61882    35.98009     4.59901
     5  C   4.0   -0.04    4.27    4.15    12.64690    41.83908     5.70920
     6  C   4.0   -0.02    3.50    3.11    11.32175    44.26299     4.85360
     7  C   4.0   -0.04    3.52    3.12     9.25152    44.23117     3.20090
     8  C   4.0   -0.03    3.50    3.12    11.89916    46.60076     5.75340
     9  C   4.0   -0.03    3.41    3.08     7.92410    46.35527     2.56559
    10  C   4.0   -0.03    3.40    3.08    10.71884    48.83302     4.92218
    11  C   4.0   -0.03    3.38    3.07     8.57867    48.66844     3.47303
    12  H   1.0    0.09    1.02    1.43    10.80432    41.82862    10.28825
    13  H   1.0    0.04    1.06    1.44     9.03876    39.87851     5.57594
    14  H   1.0    0.04    1.03    1.43    14.04872    42.24732     7.15692
    15  H   1.0    0.04    1.03    1.43    13.55701    40.96252     4.08467
    16  H   1.0    0.05    1.03    1.43     8.68266    42.43851     2.39219
    17  H   1.0    0.05    1.03    1.43    13.45735    46.79199     7.06288
    18  H   1.0    0.05    1.03    1.43     6.28793    46.15269     1.35715
    19  H   1.0    0.06    1.03    1.43    11.31425    50.60069     5.72506
    20  H   1.0    0.06    1.03    1.43     7.51675    50.32574     2.94549
    21  N   5.0   -0.15    3.46    2.05    13.27482    36.54424     8.45668
    22  C   4.0    0.03    4.34    4.27    14.49205    34.01076     8.40819
    23  C   4.0    0.09    3.23    3.04    12.40793    31.95429     8.34143
    24  O   6.0   -0.31    1.16    1.80    12.59383    30.09712     6.89695
    25  H   1.0    0.08    1.06    1.44    13.56950    37.63423    10.00156
    26  H   1.0    0.06    1.05    1.44    15.55004    33.83457     6.64338
    27  C   4.0   -0.05    4.30    4.21    16.14184    33.74340    10.73486
    28  C   4.0   -0.04    4.24    4.08    17.60008    31.27104    10.60095
    29  C   4.0    0.00    4.24    4.09    16.87618    29.56561    12.74997
    30  N   5.0   -0.14    3.45    2.05    17.51995    30.79038    15.10920
    31  C   4.0    0.10    3.37    3.07    16.00384    30.87816    17.12646
    32  N   5.0   -0.18    3.22    1.96    13.50856    31.18999    16.90957
    33  N   5.0   -0.16    3.22    1.96    17.11286    30.54423    19.37805
    34  H   1.0    0.04    1.03    1.43    17.40960    35.36698    10.80955
    35  H   1.0    0.05    1.04    1.43    14.94117    33.81998    12.40831
    36  H   1.0    0.06    1.04    1.43    17.23078    30.29670     8.82457
    37  H   1.0    0.05    1.03    1.43    19.61934    31.63824    10.72994
    38  H   1.0    0.06    1.03    1.43    14.85835    29.17222    12.69405
    39  H   1.0    0.07    1.02    1.43    17.84331    27.74239    12.59805
    40  H   1.0    0.08    1.08    1.44    19.38960    30.73601    15.50885
    41  H   1.0    0.09    1.03    1.43    12.58557    30.90509    15.27462
    42  H   1.0    0.10    1.03    1.43    12.49144    31.37930    18.50669
    43  H   1.0    0.09    1.04    1.43    18.94810    31.07402    19.47338
    44  H   1.0    0.09    1.02    1.43    16.06413    31.32668    20.85811
    45  N   5.0   -0.20    3.26    1.97     6.42453    32.52178     6.10435
    46  C   4.0    0.03    4.32    4.23     5.27002    32.59561     3.68957
    47  C   4.0    0.15    3.44    3.09     6.95975    31.28407     1.73581
    48  O   6.0   -0.32    1.26    1.80     6.06152    29.87039     0.11482
    49  C   4.0   -0.05    4.35    4.30     4.86021    35.37007     2.85807
    50  C   4.0   -0.03    4.20    4.00     2.72108    36.63658     4.38049
    51  C   4.0   -0.07    4.18    3.96     2.56288    39.35721     3.58762
    52  C   4.0   -0.07    4.15    3.91     0.11585    35.60461     3.80455
    53  H   1.0    0.09    1.03    1.43     6.82542    34.15568     7.01845
    54  H   1.0    0.04    1.05    1.44     3.47897    31.55286     3.71230
    55  H   1.0    0.05    1.03    1.43     6.63021    36.38082     3.14345
    56  H   1.0    0.04    1.03    1.43     4.37585    35.37549     0.85554
    57  H   1.0    0.04    1.06    1.44     3.09418    36.46927     6.39266
    58  H   1.0    0.05    1.00    1.43     1.11346    40.34007     4.66551
    59  H   1.0    0.04    1.00    1.43     4.34249    40.34597     3.91537
    60  H   1.0    0.04    1.00    1.43     2.10820    39.50808     1.58875
    61  H   1.0    0.05    1.01    1.43    -1.26720    36.62870     4.92743
    62  H   1.0    0.04    1.00    1.43    -0.35588    35.82779     1.82057
    63  H   1.0    0.04    1.00    1.43    -0.08076    33.61113     4.28097
    64  N   5.0   -0.14    3.50    2.08     9.40011    31.84216     1.78350
    65  C   4.0    0.03    4.44    4.45    11.10708    30.75534    -0.11416
    66  C   4.0    0.16    3.49    3.11    11.30735    27.93082     0.18699
    67  O   6.0   -0.30    1.27    1.80    11.24680    26.35054    -1.59760
    68  C   4.0   -0.03    4.39    4.37    13.72494    31.85766     0.15139
    69  C   4.0    0.16    3.25    3.04    15.60892    31.10892    -1.84831
    70  O   6.0   -0.29    1.28    1.80    17.61420    30.06141    -1.29887
    71  N   5.0   -0.19    3.27    1.97    14.83772    31.57269    -4.09288
    72  H   1.0    0.11    1.09    1.44    10.11366    33.08325     3.06118
    73  H   1.0    0.05    1.06    1.44    10.26695    31.10058    -1.97983
    74  H   1.0    0.05    1.03    1.43    13.54953    33.92176     0.14511
    75  H   1.0    0.06    1.03    1.43    14.48129    31.32009     1.99872
    76  H   1.0    0.11    1.11    1.45    15.72888    30.84485    -5.63871
    77  H   1.0    0.07    1.05    1.44    13.18127    32.48083    -4.34734
    78  N   5.0   -0.14    3.46    2.06    11.40474    27.05645     2.56604
    79  C   4.0    0.04    4.41    4.40    11.48052    24.32917     2.98739
    80  C   4.0    0.16    3.47    3.10     9.09641    22.99005     2.10260
    81  O   6.0   -0.27    1.23    1.80     9.09548    20.85062     1.20061
    82  C   4.0   -0.03    4.28    4.16    11.75557    23.43208     5.76358
    83  C   4.0   -0.02    4.16    3.93    14.30572    24.06924     6.91371
    84  C   4.0    0.26    3.09    3.02    14.46850    23.44579     9.78470
    85  O   6.0   -0.26    1.17    1.80    12.46917    22.77517    10.89169
    86  O   6.0   -0.27    1.16    1.80    16.61443    23.71195    10.72771
    87  H   1.0    0.11    1.09    1.44    11.60053    28.19905     4.10099
    88  H   1.0    0.07    1.05    1.44    13.04028    23.53788     1.86403
    89  H   1.0    0.06    1.03    1.43    10.26128    24.31554     6.88161
    90  H   1.0    0.07    1.04    1.43    11.49741    21.38837     5.74943
    91  H   1.0    0.06    1.02    1.43    15.81362    23.05546     5.94059
    92  H   1.0    0.07    1.03    1.43    14.68014    26.09179     6.73295
    93  N   5.0   -0.13    3.49    2.07     6.90717    24.20814     2.52274
    94  C   4.0    0.04    4.29    4.18     4.45489    23.19411     1.76678
    95  C   4.0    0.16    3.38    3.07     4.37174    22.89405    -1.14120
    96  O   6.0   -0.26    1.21    1.80     3.49901    20.95859    -2.10492
    97  C   4.0   -0.06    4.07    3.75     2.37794    24.82757     2.95915
    98  H   1.0    0.09    1.07    1.44     6.88042    25.87737     3.47082
    99  H   1.0    0.07    1.05    1.44     4.31757    21.24471     2.46943
   100  H   1.0    0.06    1.00    1.43     0.56752    23.88542     2.76172
   101  H   1.0    0.05    1.00    1.43     2.82122    25.08559     4.94499
   102  H   1.0    0.05    1.00    1.43     2.32790    26.66594     2.04753
   103  N   5.0   -0.14    3.48    2.06     5.34865    24.84549    -2.55174
   104  C   4.0    0.04    4.45    4.47     5.43081    24.72571    -5.26928
   105  C   4.0    0.16    3.44    3.09     7.02728    22.63548    -6.21061
   106  O   6.0   -0.26    1.22    1.80     6.39774    21.28022    -7.99290
   107  C   4.0   -0.04    4.43    4.43     6.10903    27.20988    -6.39936
   108  C   4.0   -0.02    4.18    3.95     4.13299    29.33603    -5.88205
   109  C   4.0   -0.07    4.15    3.91     5.53569    31.66303    -6.74285
   110  C   4.0   -0.07    4.09    3.78     1.73611    28.84903    -7.44557
   111  H   1.0    0.11    1.08    1.44     5.97914    26.40334    -1.63509
   112  H   1.0    0.06    1.07    1.44     3.52252    24.20650    -5.93894
   113  H   1.0    0.05    1.03    1.43     7.95128    27.76496    -5.64792
   114  H   1.0    0.05    1.04    1.43     6.27407    26.94493    -8.43589
   115  H   1.0    0.06    1.05    1.44     3.69121    29.42497    -3.87491
   116  H   1.0    0.04    1.00    1.43     4.37786    33.35132    -6.55070
   117  H   1.0    0.04    1.00    1.43     7.24236    31.91757    -5.63577
   118  H   1.0    0.04    1.01    1.43     6.04882    31.46784    -8.72276
   119  H   1.0    0.05    1.00    1.43     0.47377    30.46857    -7.37142
   120  H   1.0    0.05    1.00    1.43     2.22062    28.51764    -9.41599
   121  H   1.0    0.05    1.00    1.43     0.72370    27.19908    -6.77169
   122  N   5.0   -0.13    3.43    2.03     9.30789    22.29554    -5.03579
   123  C   4.0    0.04    4.29    4.18    11.04353    20.19202    -5.68766
   124  C   4.0    0.11    3.20    3.04     9.93186    17.61625    -5.12945
   125  O   6.0   -0.24    1.12    1.80    10.16360    15.92746    -6.73696
   126  C   4.0   -0.03    4.28    4.16    13.66753    20.56255    -4.53071
   127  C   4.0   -0.03    4.20    4.01    14.96354    22.91875    -5.55301
   128  C   4.0    0.25    3.14    3.03    17.62721    23.14591    -4.55966
   129  O   6.0   -0.27    1.20    1.80    18.24736    21.82332    -2.70381
   130  O   6.0   -0.31    1.30    1.80    19.08726    24.74628    -5.57967
   131  H   1.0    0.11    1.08    1.44     9.80489    23.39477    -3.55431
   132  H   1.0    0.07    1.06    1.44    11.24488    20.23638    -7.75942
   133  H   1.0    0.07    1.03    1.43    13.49827    20.70804    -2.47715
   134  H   1.0    0.07    1.03    1.43    14.80808    18.89035    -4.91924
   135  H   1.0    0.05    1.02    1.43    14.97114    22.90759    -7.61794
   136  H   1.0    0.06    1.03    1.43    13.93991    24.59329    -4.90585
   137  O   6.0   -0.32    2.07    1.83    17.15538    29.00883    -7.80766
   138  H   1.0    0.15    1.00    1.43    17.28585    27.20407    -7.35589
   139  H   1.0    0.13    0.98    1.43    18.60674    29.58834    -6.85420
   140  O   6.0   -0.29    1.93    1.82    19.23461    28.79774     3.37095
   141  H   1.0    0.16    1.03    1.43    18.86932    29.36796     1.66175
   142  H   1.0    0.14    0.97    1.43    19.40137    27.00371     3.20216
   143  O   6.0   -0.26    1.93    1.82    23.24165    26.91338    -3.81844
   144  H   1.0    0.15    0.97    1.43    23.24270    27.23102    -2.03765
   145  H   1.0    0.18    1.04    1.43    21.63367    26.09595    -4.20934
   146  N   5.0   -0.19    3.20    1.96    26.87106    41.18446     3.59523
   147  C   4.0    0.03    4.34    4.28    25.44699    38.95135     2.79129
   148  C   4.0    0.15    3.44    3.09    25.99985    38.21770     0.14642
   149  O   6.0   -0.29    1.27    1.80    25.87528    39.71921    -1.56432
   150  C   4.0   -0.05    4.41    4.39    22.58313    39.52081     2.94021
   151  C   4.0   -0.02    4.20    4.01    20.95843    37.24086     2.46642
   152  C   4.0   -0.07    4.17    3.93    21.49530    35.25235     4.43398
   153  C   4.0   -0.07    4.11    3.83    18.13410    37.98242     2.79307
   154  H   1.0    0.10    1.02    1.43    26.61793    42.78063     2.56852
   155  H   1.0    0.04    1.06    1.44    25.95978    37.45044     4.11160
   156  H   1.0    0.04    1.03    1.43    22.18174    40.27552     4.81692
   157  H   1.0    0.05    1.03    1.43    22.18174    41.00386     1.55777
   158  H   1.0    0.05    1.05    1.44    21.25846    36.49346     0.56485
   159  H   1.0    0.06    1.00    1.43    20.23183    33.64864     4.17517
   160  H   1.0    0.05    1.00    1.43    23.40493    34.50721     4.31589
   161  H   1.0    0.04    1.00    1.43    21.18962    36.02405     6.31334
   162  H   1.0    0.05    1.00    1.43    16.92400    36.35291     2.51006
   163  H   1.0    0.04    1.00    1.43    17.84179    38.71448     4.68797
   164  H   1.0    0.04    1.00    1.43    17.60525    39.43465     1.43683
   165  N   5.0   -0.13    3.46    2.05    26.77711    35.84992    -0.37903
   166  C   4.0    0.03    4.43    4.44    27.32027    34.79518    -2.86750
   167  C   4.0    0.15    3.40    3.08    24.84794    33.76719    -4.03810
   168  O   6.0   -0.28    1.23    1.80    23.62879    32.22020    -2.83565
   169  C   4.0   -0.03    4.31    4.21    29.37148    32.81117    -2.64255
   170  C   4.0   -0.03    4.28    4.17    30.12649    32.08471    -5.28115
   171  C   4.0    0.17    3.24    3.04    32.49328    30.41934    -5.14356
   172  O   6.0   -0.26    1.23    1.80    32.48441    28.44145    -4.02600
   173  N   5.0   -0.17    3.20    1.96    34.47951    31.22832    -6.37107
   174  H   1.0    0.08    1.06    1.44    26.88115    34.58066     1.05914
   175  H   1.0    0.06    1.06    1.44    27.98562    36.37007    -4.04166
   176  H   1.0    0.06    1.03    1.43    30.96060    33.61249    -1.60355
   177  H   1.0    0.07    1.03    1.43    28.66171    31.16529    -1.62356
   178  H   1.0    0.07    1.03    1.43    28.63346    30.96342    -6.15464
   179  H   1.0    0.05    1.03    1.43    30.49634    33.74195    -6.44463
   180  H   1.0    0.09    1.03    1.43    34.43616    32.77716    -7.49902
   181  H   1.0    0.11    1.03    1.43    36.05136    30.12969    -6.49528
   182  N   5.0   -0.13    3.49    2.07    24.34794    34.52147    -6.35925
   183  C   4.0    0.03    4.50    4.54    21.92926    34.15481    -7.62342
   184  C   4.0    0.15    3.45    3.10    22.60554    32.93128   -10.16427
   185  O   6.0   -0.28    1.24    1.80    24.38111    33.81860   -11.41142
   186  C   4.0   -0.02    4.31    4.23    20.53336    36.62192    -8.03948
   187  C   4.0   -0.04    4.19    3.98    19.63581    37.66660    -5.47811
   188  C   4.0   -0.07    4.13    3.86    18.13863    36.17352    -9.67321
   189  C   4.0   -0.07    3.99    3.60    19.08404    40.53795    -5.47947
   190  H   1.0    0.09    1.07    1.44    25.48587    35.83886    -7.18060
   191  H   1.0    0.06    1.06    1.44    20.82625    32.87693    -6.42984
   192  H   1.0    0.06    1.05    1.44    21.79699    37.97006    -8.95579
   193  H   1.0    0.04    1.03    1.43    17.94997    36.64299    -4.88042
   194  H   1.0    0.06    1.03    1.43    21.09493    37.33263    -4.05427
   195  H   1.0    0.04    1.00    1.43    16.98960    37.86661    -9.72017
   196  H   1.0    0.06    1.00    1.43    18.63233    35.68626   -11.60779
   197  H   1.0    0.04    1.00    1.43    17.03114    34.64793    -8.86541
   198  H   1.0    0.04    1.00    1.43    18.33822    41.10920    -3.65853
   199  H   1.0    0.05    1.00    1.43    20.82358    41.56216    -5.84348
   200  H   1.0    0.04    1.00    1.43    17.70789    41.02461    -6.92230
   201  N   5.0   -0.14    3.46    2.05    21.22336    30.97847   -10.90868
   202  C   4.0    0.04    4.32    4.24    21.59071    29.75327   -13.34579
   203  C   4.0    0.08    3.22    3.04    19.71486    30.71838   -15.28059
   204  O   6.0   -0.29    1.14    1.80    17.46029    30.56766   -14.83917
   205  C   4.0   -0.04    4.26    4.12    21.14732    26.89644   -12.91131
   206  C   4.0   -0.05    4.15    3.90    22.61761    25.30054   -14.85910
   207  C   4.0   -0.00    4.17    3.95    22.17915    22.40313   -14.53835
   208  N   5.0   -0.13    3.40    2.02    23.52397    21.07951   -16.55085
   209  C   4.0    0.10    3.33    3.06    23.26151    18.62569   -17.09031
   210  N   5.0   -0.17    3.24    1.97    21.48591    17.27426   -15.89883
   211  N   5.0   -0.17    3.23    1.96    24.56588    17.70104   -19.04365
   212  H   1.0    0.09    1.10    1.44    19.70520    30.35684    -9.93155
   213  H   1.0    0.06    1.06    1.44    23.53812    30.11966   -13.92906
   214  H   1.0    0.06    1.03    1.43    21.77154    26.38825   -11.01559
   215  H   1.0    0.06    1.03    1.43    19.12694    26.51558   -13.03600
   216  H   1.0    0.05    1.03    1.43    21.97898    25.82917   -16.74504
   217  H   1.0    0.05    1.02    1.43    24.62176    25.70772   -14.65220
   218  H   1.0    0.05    1.02    1.43    22.83531    21.78921   -12.67655
   219  H   1.0    0.05    1.02    1.43    20.16525    21.99144   -14.67786
   220  H   1.0    0.08    1.07    1.44    24.94548    22.05179   -17.37788
   221  H   1.0    0.09    1.04    1.43    20.99024    17.76344   -14.12050
   222  H   1.0    0.10    1.03    1.43    21.37750    15.38914   -16.24208
   223  H   1.0    0.10    1.03    1.43    25.83211    18.76908   -19.97808
   224  H   1.0    0.10    1.03    1.43    24.39877    15.85757   -19.48151
   225  N   5.0   -0.20    3.17    1.95    12.00964    37.67323   -17.95688
   226  C   4.0    0.03    4.17    3.93    11.53537    37.60308   -15.23456
   227  C   4.0    0.08    3.19    3.03    12.91383    39.69102   -13.77568
   228  O   6.0   -0.30    1.13    1.80    11.90401    40.89769   -12.02166
   229  C   4.0   -0.04    4.24    4.07    12.26251    34.99949   -14.16043
   230  C   4.0   -0.05    4.15    3.90    11.43769    34.50579   -11.36127
   231  C   4.0   -0.01    4.20    4.00    12.19532    31.77881   -10.55483
   232  N   5.0   -0.14    3.44    2.04    10.33896    30.11706   -11.88063
   233  C   4.0    0.10    3.34    3.06    10.66440    27.64712   -12.05057
   234  N   5.0   -0.17    3.30    1.98    12.87847    26.74566   -11.34246
   235  N   5.0   -0.18    3.23    1.96     8.93830    26.19783   -13.13096
   236  H   1.0    0.09    1.02    1.43    12.59285    36.06891   -18.84234
   237  H   1.0    0.05    1.05    1.44     9.50760    37.93300   -14.91179
   238  H   1.0    0.05    1.03    1.43    11.33075    33.57338   -15.31883
   239  H   1.0    0.06    1.02    1.43    14.30154    34.75415   -14.31317
   240  H   1.0    0.04    1.02    1.43    12.34894    35.88949   -10.14601
   241  H   1.0    0.04    1.02    1.43     9.40439    34.74265   -11.18418
   242  H   1.0    0.06    1.03    1.43    14.09644    31.39628   -11.24131
   243  H   1.0    0.04    1.02    1.43    12.03246    31.52011    -8.52532
   244  H   1.0    0.07    1.06    1.44     8.71694    30.90710   -12.54160
   245  H   1.0    0.10    1.06    1.44    14.10096    27.77524   -10.31602
   246  H   1.0    0.09    1.03    1.43    13.20655    24.85103   -11.48378
   247  H   1.0    0.09    1.03    1.43     7.23735    26.90457   -13.61946
   248  H   1.0    0.10    1.02    1.43     9.18567    24.30439   -13.42764
   249  N   5.0   -0.20    3.21    1.96     9.94744    45.54966    -9.28255
   250  C   4.0    0.04    4.23    4.05    10.72294    46.07495    -6.79643
   251  C   4.0    0.09    3.20    3.04    11.86036    48.74221    -6.53016
   252  O   6.0   -0.27    1.11    1.80    11.61882    50.00244    -4.59901
   253  C   4.0   -0.03    4.27    4.14    12.64690    44.14345    -5.70920
   254  C   4.0   -0.02    3.50    3.11    11.32175    41.71954    -4.85360
   255  C   4.0   -0.04    3.52    3.12     9.25152    41.75136    -3.20090
   256  C   4.0   -0.03    3.50    3.12    11.89916    39.38177    -5.75340
   257  C   4.0   -0.04    3.41    3.08     7.92410    39.62726    -2.56559
   258  C   4.0   -0.04    3.40    3.08    10.71884    37.14951    -4.92218
   259  C   4.0   -0.04    3.38    3.07     8.57867    37.31409    -3.47303
   260  H   1.0    0.12    1.04    1.44    10.80432    44.15391   -10.28825
   261  H   1.0    0.05    1.06    1.44     9.03876    46.10402    -5.57594
   262  H   1.0    0.05    1.03    1.43    14.04872    43.73521    -7.15692
   263  H   1.0    0.05    1.03    1.43    13.55701    45.02002    -4.08467
   264  H   1.0    0.05    1.03    1.43     8.68266    43.54402    -2.39219
   265  H   1.0    0.05    1.03    1.43    13.45735    39.19054    -7.06288
   266  H   1.0    0.04    1.03    1.43     6.28793    39.82984    -1.35715
   267  H   1.0    0.04    1.03    1.43    11.31425    35.38184    -5.72506
   268  H   1.0    0.05    1.03    1.43     7.51675    35.65679    -2.94549
   269  H   1.0    0.09    1.08    1.44     8.30637    40.87946     9.28297
   270  H   1.0    0.06    1.04    1.43    10.89431    32.10626     9.46256
   271  H   1.0    0.09    1.08    1.44     5.42129    31.67773     7.18771
   272  H   1.0    0.08    1.04    1.43     9.03560    17.30809    -3.49457
   273  H   1.0    0.10    1.07    1.44    26.44050    41.58851     5.19020
   274  H   1.0    0.06    1.04    1.44    20.33123    31.47007   -16.90112
   275  H   1.0    0.10    1.07    1.44    10.58288    38.11467   -18.77053
   276  H   1.0    0.06    1.04    1.44    14.69690    40.13364   -14.21817
   277  H   1.0    0.10    1.08    1.44     8.30637    45.10307    -9.28297
   278  H   1.0    0.07    1.05    1.44    12.83404    49.50133    -7.96080

  Z AO/shell   Hii/eV     exponent
  1     Wed Apr 25 08:07:45 CEST 2018   EN: 2.200 GM2: 0.406  GM3: 0.0800  RAES: 1.40
     1s    -10.707211    1.230000
  6     Wed Apr 25 08:07:45 CEST 2018   EN: 2.550 GM2: 0.538  GM3: 0.1500  RAES: 3.00
     2s    -13.970922    2.096432
     2p    -10.063292    1.800000
  7     Wed Apr 25 08:07:45 CEST 2018   EN: 3.040 GM2: 0.461  GM3:-0.0640  RAES: 1.90
     2s    -16.686243    2.339881
     2p    -12.523956    2.014332
  8     Wed Apr 25 08:07:45 CEST 2018   EN: 3.440 GM2: 0.452  GM3:-0.0517  RAES: 1.80
     2s    -20.229985    2.439742
     2p    -15.503117    2.137023
 no old-style atom pair restraining (fixing) potential

molecular fragmentation (1/2 indicates fragments):
111111111111111111111111111111111111111111112222222222222222222222222222
222222222222222222222222222222222222222222222222222222222222222222222222
222222222222222222222222222222222222222222222222222222222222222222222222
22222222222222222222222222222222222222222222222222221122222222
# atoms in fragment 1/2:    46   232
 fragment masses (1/2) :      306.39     1545.84
CMA distance (Bohr)    :  14.945
constraining FC (au)   :  0.0500
           ------------------------------------------------- 
          |        Self-Consistent Charge Iterations        |
           ------------------------------------------------- 

 Ncao       : 668
 Nao        : 668
 Nshell     : 408
 Nel        : 738
 T(el)      :   500.0
 intcut     :    35.0
 scfconv/Eh :  0.100E-06
   qconv/e  :  0.100E-04
 intneglect :  0.100E-08
 broydamp   :      0.400
 iter      E             dE          RMSdq      gap      omega  full diag
   1   -421.6212439 -0.421621E+03  0.461E+00    2.77       0.0  T
   2   -422.6101375 -0.988894E+00  0.216E+00    1.60       1.0  T
   3   -422.6740332 -0.638958E-01  0.123E+00    1.83       1.0  T
   4   -422.7481604 -0.741272E-01  0.265E-01    1.04       1.0  T
   5   -422.7523529 -0.419254E-02  0.132E-01    1.24       1.0  T
   6   -422.7533213 -0.968369E-03  0.519E-02    1.20       1.0  T
   7   -422.7534860 -0.164691E-03  0.229E-02    1.24       1.0  T
   8   -422.7535043 -0.182552E-04  0.102E-02    1.24       1.0  T
   9   -422.7535118 -0.753606E-05  0.424E-03    1.25       1.4  T
  10   -422.7535127 -0.937259E-06  0.194E-03    1.25       3.1  T
  11   -422.7535130 -0.230254E-06  0.816E-04    1.25       7.3  T
  12   -422.7535130 -0.398671E-07  0.347E-04    1.25      17.3  T
  13   -422.7535130 -0.906067E-08  0.153E-04    1.25      39.1  T
  14   -422.7535130 -0.939508E-09  0.738E-05    1.25      81.3  T
  15   -422.7535130 -0.323212E-09  0.281E-05    1.25     213.1  T
speedup  8.90
cpu  time for SCC   10.82 s
wall time for SCC    1.22 s

   *** convergence criteria satisfied after 15 iterations ***

          eigenvalues
 #    :         357        358        359        360        361        362        363        364
 occ. :        2.000      2.000      2.000      2.000      2.000      2.000      2.000      2.000
 eps  :       -10.768    -10.745    -10.646    -10.529    -10.441    -10.237    -10.166    -10.151
 #    :         365        366        367        368        369        370        371        372
 occ. :        2.000      2.000      2.000      2.000      2.000      0.000      0.000      0.000
 eps  :       -10.042    -10.013     -9.894     -9.750     -9.696     -8.444     -7.971     -7.927
 #    :         373        374        375        376        377        378        379        380
 occ. :        0.000      0.000      0.000      0.000      0.000      0.000      0.000      0.000
 eps  :        -7.805     -7.615     -6.957     -6.761     -6.428     -6.305     -6.296     -6.239


   #   Z            q   n(s)   n(p)   n(d)      C6AA      α(0)
   1   7 N     -0.382  1.292  4.090  0.000    29.878     8.118
   2   6 C      0.034  1.054  2.911  0.000    20.011     6.372
   3   6 C      0.262  1.048  2.690  0.000    22.582     7.782
   4   8 O     -0.498  1.743  4.754  0.000    23.736     6.532
   5   6 C     -0.079  1.061  3.018  0.000    22.003     6.678
   6   6 C      0.011  1.083  2.907  0.000    27.776     8.644
   7   6 C     -0.041  1.078  2.962  0.000    29.008     8.834
   8   6 C     -0.041  1.079  2.961  0.000    29.010     8.834
   9   6 C     -0.028  1.072  2.956  0.000    28.709     8.787
  10   6 C     -0.035  1.083  2.952  0.000    28.867     8.811
  11   6 C     -0.030  1.074  2.956  0.000    28.744     8.792
  12   1 H      0.170  0.830  0.000  0.000     1.270     1.765
  13   1 H      0.041  0.959  0.000  0.000     2.441     2.443
  14   1 H      0.057  0.943  0.000  0.000     2.232     2.336
  15   1 H      0.056  0.944  0.000  0.000     2.241     2.341
  16   1 H      0.033  0.967  0.000  0.000     2.545     2.495
  17   1 H      0.031  0.969  0.000  0.000     2.574     2.509
  18   1 H      0.029  0.971  0.000  0.000     2.594     2.519
  19   1 H      0.032  0.968  0.000  0.000     2.562     2.503
  20   1 H      0.027  0.973  0.000  0.000     2.625     2.533
  21   7 N     -0.167  1.250  3.917  0.000    24.607     7.367
  22   6 C      0.021  1.071  2.908  0.000    20.231     6.405
  23   6 C      0.199  1.096  2.705  0.000    23.761     7.983
  24   8 O     -0.382  1.770  4.611  0.000    21.320     6.191
  25   1 H      0.237  0.763  0.000  0.000     0.938     1.517
  26   1 H      0.095  0.905  0.000  0.000     1.827     2.114
  27   6 C     -0.091  1.059  3.031  0.000    22.221     6.710
  28   6 C     -0.080  1.045  3.035  0.000    22.013     6.678
  29   6 C     -0.008  1.046  2.962  0.000    20.788     6.504
  30   7 N     -0.149  1.235  3.914  0.000    24.232     7.311
  31   6 C      0.231  1.023  2.745  0.000    23.146     7.877
  32   7 N     -0.235  1.230  4.005  0.000    26.167     7.597
  33   7 N     -0.269  1.324  3.945  0.000    26.965     7.712
  34   1 H      0.098  0.902  0.000  0.000     1.800     2.098
  35   1 H      0.088  0.912  0.000  0.000     1.894     2.152
  36   1 H      0.058  0.942  0.000  0.000     2.219     2.330
  37   1 H      0.079  0.921  0.000  0.000     1.987     2.204
  38   1 H      0.057  0.943  0.000  0.000     2.233     2.337
  39   1 H      0.074  0.926  0.000  0.000     2.043     2.235
  40   1 H      0.235  0.765  0.000  0.000     0.943     1.521
  41   1 H      0.239  0.761  0.000  0.000     0.929     1.510
  42   1 H      0.265  0.735  0.000  0.000     0.829     1.426
  43   1 H      0.255  0.745  0.000  0.000     0.863     1.455
  44   1 H      0.257  0.743  0.000  0.000     0.857     1.450
  45   7 N     -0.390  1.301  4.089  0.000    30.094     8.147
  46   6 C      0.035  1.054  2.911  0.000    20.001     6.370
  47   6 C      0.259  1.054  2.687  0.000    22.640     7.792
  48   8 O     -0.510  1.743  4.767  0.000    24.005     6.569
  49   6 C     -0.072  1.064  3.009  0.000    21.877     6.658
  50   6 C     -0.008  1.050  2.957  0.000    20.680     6.468
  51   6 C     -0.108  1.040  3.068  0.000    22.587     6.770
  52   6 C     -0.113  1.040  3.073  0.000    22.689     6.787
  53   1 H      0.159  0.841  0.000  0.000     1.340     1.814
  54   1 H      0.037  0.963  0.000  0.000     2.484     2.465
  55   1 H      0.052  0.948  0.000  0.000     2.295     2.369
  56   1 H      0.046  0.954  0.000  0.000     2.374     2.409
  57   1 H      0.034  0.966  0.000  0.000     2.524     2.484
  58   1 H      0.041  0.959  0.000  0.000     2.440     2.443
  59   1 H      0.030  0.970  0.000  0.000     2.588     2.516
  60   1 H      0.042  0.958  0.000  0.000     2.419     2.432
  61   1 H      0.042  0.958  0.000  0.000     2.421     2.433
  62   1 H      0.044  0.956  0.000  0.000     2.402     2.424
  63   1 H      0.028  0.972  0.000  0.000     2.616     2.529
  64   7 N     -0.179  1.250  3.929  0.000    24.866     7.406
  65   6 C      0.034  1.054  2.912  0.000    20.008     6.368
  66   6 C      0.270  1.050  2.680  0.000    22.432     7.757
  67   8 O     -0.516  1.757  4.759  0.000    24.135     6.587
  68   6 C     -0.108  1.056  3.052  0.000    22.536     6.754
  69   6 C      0.294  1.019  2.687  0.000    22.007     7.681
  70   8 O     -0.517  1.762  4.755  0.000    24.167     6.591
  71   7 N     -0.282  1.262  4.019  0.000    27.272     7.756
  72   1 H      0.236  0.764  0.000  0.000     0.939     1.518
  73   1 H      0.085  0.915  0.000  0.000     1.930     2.173
  74   1 H      0.094  0.906  0.000  0.000     1.837     2.120
  75   1 H      0.071  0.929  0.000  0.000     2.079     2.255
  76   1 H      0.257  0.743  0.000  0.000     0.856     1.450
  77   1 H      0.217  0.783  0.000  0.000     1.024     1.585
  78   7 N     -0.184  1.255  3.929  0.000    24.986     7.424
  79   6 C      0.034  1.058  2.908  0.000    20.002     6.368
  80   6 C      0.281  1.044  2.675  0.000    22.248     7.725
  81   8 O     -0.511  1.756  4.754  0.000    24.019     6.571
  82   6 C     -0.047  1.053  2.994  0.000    21.404     6.585
  83   6 C     -0.091  1.065  3.026  0.000    22.240     6.715
  84   6 C      0.367  1.027  2.607  0.000    20.784     7.461
  85   8 O     -0.648  1.779  4.869  0.000    27.321     7.008
  86   8 O     -0.632  1.766  4.866  0.000    26.931     6.958
  87   1 H      0.233  0.767  0.000  0.000     0.951     1.528
  88   1 H      0.052  0.948  0.000  0.000     2.301     2.372
  89   1 H      0.053  0.947  0.000  0.000     2.286     2.364
  90   1 H      0.031  0.969  0.000  0.000     2.571     2.507
  91   1 H      0.009  0.991  0.000  0.000     2.901     2.664
  92   1 H      0.048  0.952  0.000  0.000     2.345     2.395
  93   7 N     -0.186  1.249  3.938  0.000    25.034     7.431
  94   6 C      0.027  1.066  2.907  0.000    20.132     6.391
  95   6 C      0.271  1.054  2.676  0.000    22.425     7.754
  96   8 O     -0.500  1.762  4.738  0.000    23.789     6.539
  97   6 C     -0.132  1.045  3.087  0.000    23.088     6.852
  98   1 H      0.201  0.799  0.000  0.000     1.103     1.645
  99   1 H      0.064  0.936  0.000  0.000     2.149     2.293
 100   1 H      0.077  0.923  0.000  0.000     2.007     2.216
 101   1 H      0.072  0.928  0.000  0.000     2.058     2.244
 102   1 H      0.075  0.925  0.000  0.000     2.032     2.229
 103   7 N     -0.187  1.249  3.937  0.000    25.043     7.432
 104   6 C      0.033  1.044  2.924  0.000    20.022     6.371
 105   6 C      0.275  1.045  2.680  0.000    22.351     7.742
 106   8 O     -0.488  1.747  4.740  0.000    23.514     6.501
 107   6 C     -0.087  1.064  3.023  0.000    22.135     6.694
 108   6 C     -0.017  1.059  2.958  0.000    20.852     6.495
 109   6 C     -0.122  1.043  3.078  0.000    22.858     6.812
 110   6 C     -0.121  1.042  3.079  0.000    22.879     6.821
 111   1 H      0.222  0.778  0.000  0.000     1.002     1.568
 112   1 H      0.078  0.922  0.000  0.000     2.004     2.214
 113   1 H      0.060  0.940  0.000  0.000     2.197     2.318
 114   1 H      0.075  0.925  0.000  0.000     2.036     2.231
 115   1 H      0.047  0.953  0.000  0.000     2.362     2.403
 116   1 H      0.050  0.950  0.000  0.000     2.324     2.384
 117   1 H      0.040  0.960  0.000  0.000     2.455     2.450
 118   1 H      0.062  0.938  0.000  0.000     2.181     2.309
 119   1 H      0.051  0.949  0.000  0.000     2.313     2.378
 120   1 H      0.055  0.945  0.000  0.000     2.263     2.352
 121   1 H      0.027  0.973  0.000  0.000     2.628     2.535
 122   7 N     -0.192  1.255  3.938  0.000    25.173     7.452
 123   6 C      0.027  1.067  2.906  0.000    20.127     6.390
 124   6 C      0.209  1.083  2.708  0.000    23.568     7.950
 125   8 O     -0.367  1.754  4.613  0.000    21.026     6.148
 126   6 C     -0.041  1.046  2.996  0.000    21.312     6.572
 127   6 C     -0.101  1.064  3.038  0.000    22.430     6.742
 128   6 C      0.367  1.022  2.611  0.000    20.778     7.460
 129   8 O     -0.644  1.790  4.854  0.000    27.229     6.996
 130   8 O     -0.613  1.755  4.857  0.000    26.429     6.893
 131   1 H      0.206  0.794  0.000  0.000     1.075     1.624
 132   1 H      0.101  0.899  0.000  0.000     1.777     2.085
 133   1 H      0.034  0.966  0.000  0.000     2.533     2.489
 134   1 H      0.049  0.951  0.000  0.000     2.334     2.389
 135   1 H      0.064  0.936  0.000  0.000     2.151     2.294
 136   1 H      0.065  0.935  0.000  0.000     2.146     2.291
 137   8 O     -0.582  1.733  4.849  0.000    24.762     6.716
 138   1 H      0.330  0.670  0.000  0.000     0.637     1.254
 139   1 H      0.307  0.693  0.000  0.000     0.701     1.316
 140   8 O     -0.635  1.750  4.886  0.000    26.047     6.888
 141   1 H      0.315  0.685  0.000  0.000     0.679     1.294
 142   1 H      0.283  0.717  0.000  0.000     0.774     1.382
 143   8 O     -0.647  1.753  4.893  0.000    26.332     6.926
 144   1 H      0.283  0.717  0.000  0.000     0.775     1.383
 145   1 H      0.315  0.685  0.000  0.000     0.677     1.293
 146   7 N     -0.395  1.326  4.069  0.000    30.244     8.168
 147   6 C      0.031  1.055  2.914  0.000    20.068     6.380
 148   6 C      0.283  1.040  2.678  0.000    22.215     7.719
 149   8 O     -0.489  1.732  4.757  0.000    23.541     6.505
 150   6 C     -0.069  1.060  3.009  0.000    21.795     6.644
 151   6 C     -0.006  1.050  2.956  0.000    20.647     6.463
 152   6 C     -0.117  1.040  3.077  0.000    22.783     6.803
 153   6 C     -0.113  1.045  3.068  0.000    22.704     6.793
 154   1 H      0.159  0.841  0.000  0.000     1.343     1.815
 155   1 H      0.043  0.957  0.000  0.000     2.415     2.430
 156   1 H      0.050  0.950  0.000  0.000     2.325     2.385
 157   1 H      0.039  0.961  0.000  0.000     2.463     2.454
 158   1 H      0.012  0.988  0.000  0.000     2.854     2.642
 159   1 H      0.047  0.953  0.000  0.000     2.355     2.400
 160   1 H      0.023  0.977  0.000  0.000     2.682     2.561
 161   1 H      0.054  0.946  0.000  0.000     2.276     2.359
 162   1 H      0.038  0.962  0.000  0.000     2.479     2.462
 163   1 H      0.049  0.951  0.000  0.000     2.329     2.386
 164   1 H      0.033  0.967  0.000  0.000     2.539     2.492
 165   7 N     -0.190  1.250  3.939  0.000    25.116     7.443
 166   6 C      0.023  1.068  2.909  0.000    20.191     6.398
 167   6 C      0.275  1.036  2.689  0.000    22.352     7.742
 168   8 O     -0.476  1.752  4.724  0.000    23.256     6.466
 169   6 C     -0.057  1.046  3.011  0.000    21.593     6.614
 170   6 C     -0.100  1.057  3.043  0.000    22.389     6.734
 171   6 C      0.300  1.026  2.674  0.000    21.905     7.663
 172   8 O     -0.509  1.746  4.762  0.000    23.977     6.565
 173   7 N     -0.284  1.268  4.017  0.000    27.342     7.766
 174   1 H      0.185  0.815  0.000  0.000     1.187     1.707
 175   1 H      0.061  0.939  0.000  0.000     2.188     2.313
 176   1 H      0.059  0.941  0.000  0.000     2.210     2.325
 177   1 H      0.059  0.941  0.000  0.000     2.207     2.323
 178   1 H      0.066  0.934  0.000  0.000     2.135     2.285
 179   1 H      0.059  0.941  0.000  0.000     2.212     2.326
 180   1 H      0.232  0.768  0.000  0.000     0.955     1.531
 181   1 H      0.235  0.765  0.000  0.000     0.946     1.523
 182   7 N     -0.169  1.247  3.922  0.000    24.656     7.375
 183   6 C      0.019  1.065  2.916  0.000    20.264     6.409
 184   6 C      0.266  1.044  2.689  0.000    22.503     7.769
 185   8 O     -0.502  1.755  4.747  0.000    23.836     6.546
 186   6 C     -0.026  1.065  2.960  0.000    20.997     6.517
 187   6 C     -0.059  1.052  3.007  0.000    21.631     6.621
 188   6 C     -0.128  1.045  3.083  0.000    23.015     6.840
 189   6 C     -0.107  1.039  3.068  0.000    22.610     6.782
 190   1 H      0.206  0.794  0.000  0.000     1.077     1.625
 191   1 H      0.064  0.936  0.000  0.000     2.151     2.294
 192   1 H      0.054  0.946  0.000  0.000     2.270     2.356
 193   1 H      0.046  0.954  0.000  0.000     2.373     2.409
 194   1 H      0.016  0.984  0.000  0.000     2.787     2.611
 195   1 H      0.063  0.937  0.000  0.000     2.160     2.298
 196   1 H      0.047  0.953  0.000  0.000     2.352     2.398
 197   1 H      0.061  0.939  0.000  0.000     2.184     2.311
 198   1 H      0.035  0.965  0.000  0.000     2.511     2.478
 199   1 H      0.037  0.963  0.000  0.000     2.489     2.467
 200   1 H      0.048  0.952  0.000  0.000     2.346     2.395
 201   7 N     -0.172  1.249  3.923  0.000    24.724     7.385
 202   6 C      0.016  1.060  2.923  0.000    20.309     6.418
 203   6 C      0.196  1.084  2.720  0.000    23.821     7.993
 204   8 O     -0.325  1.735  4.590  0.000    20.239     6.032
 205   6 C     -0.087  1.062  3.025  0.000    22.158     6.701
 206   6 C     -0.089  1.061  3.028  0.000    22.197     6.708
 207   6 C     -0.031  1.057  2.974  0.000    21.217     6.574
 208   7 N     -0.138  1.216  3.922  0.000    23.991     7.275
 209   6 C      0.231  1.022  2.747  0.000    23.160     7.879
 210   7 N     -0.251  1.252  3.999  0.000    26.527     7.649
 211   7 N     -0.255  1.236  4.019  0.000    26.625     7.663
 212   1 H      0.233  0.767  0.000  0.000     0.951     1.528
 213   1 H      0.087  0.913  0.000  0.000     1.911     2.162
 214   1 H      0.071  0.929  0.000  0.000     2.073     2.252
 215   1 H      0.086  0.914  0.000  0.000     1.915     2.164
 216   1 H      0.081  0.919  0.000  0.000     1.967     2.193
 217   1 H      0.070  0.930  0.000  0.000     2.090     2.261
 218   1 H      0.072  0.928  0.000  0.000     2.065     2.247
 219   1 H      0.096  0.904  0.000  0.000     1.818     2.108
 220   1 H      0.235  0.765  0.000  0.000     0.944     1.522
 221   1 H      0.241  0.759  0.000  0.000     0.919     1.502
 222   1 H      0.245  0.755  0.000  0.000     0.902     1.488
 223   1 H      0.256  0.744  0.000  0.000     0.862     1.454
 224   1 H      0.253  0.747  0.000  0.000     0.872     1.463
 225   7 N     -0.396  1.317  4.079  0.000    30.259     8.170
 226   6 C      0.039  1.057  2.905  0.000    19.948     6.363
 227   6 C      0.194  1.099  2.707  0.000    23.857     7.999
 228   8 O     -0.387  1.765  4.622  0.000    21.420     6.205
 229   6 C     -0.088  1.068  3.021  0.000    22.187     6.706
 230   6 C     -0.089  1.062  3.027  0.000    22.206     6.710
 231   6 C     -0.045  1.072  2.973  0.000    21.464     6.612
 232   7 N     -0.144  1.218  3.925  0.000    24.110     7.293
 233   6 C      0.230  1.014  2.756  0.000    23.167     7.880
 234   7 N     -0.234  1.223  4.011  0.000    26.135     7.593
 235   7 N     -0.249  1.226  4.023  0.000    26.475     7.642
 236   1 H      0.178  0.822  0.000  0.000     1.228     1.736
 237   1 H      0.056  0.944  0.000  0.000     2.252     2.347
 238   1 H      0.084  0.916  0.000  0.000     1.942     2.179
 239   1 H      0.073  0.927  0.000  0.000     2.056     2.242
 240   1 H      0.067  0.933  0.000  0.000     2.117     2.275
 241   1 H      0.076  0.924  0.000  0.000     2.026     2.226
 242   1 H      0.114  0.886  0.000  0.000     1.664     2.017
 243   1 H      0.078  0.922  0.000  0.000     2.000     2.212
 244   1 H      0.229  0.771  0.000  0.000     0.969     1.542
 245   1 H      0.247  0.753  0.000  0.000     0.895     1.482
 246   1 H      0.224  0.776  0.000  0.000     0.990     1.559
 247   1 H      0.244  0.756  0.000  0.000     0.908     1.493
 248   1 H      0.245  0.755  0.000  0.000     0.904     1.489
 249   7 N     -0.391  1.300  4.091  0.000    30.120     8.151
 250   6 C      0.050  1.051  2.899  0.000    19.757     6.332
 251   6 C      0.196  1.097  2.707  0.000    23.825     7.994
 252   8 O     -0.396  1.763  4.633  0.000    21.604     6.232
 253   6 C     -0.070  1.060  3.011  0.000    21.844     6.654
 254   6 C      0.016  1.083  2.901  0.000    27.655     8.626
 255   6 C     -0.037  1.079  2.958  0.000    28.928     8.822
 256   6 C     -0.036  1.080  2.956  0.000    28.893     8.816
 257   6 C     -0.029  1.071  2.958  0.000    28.726     8.790
 258   6 C     -0.045  1.082  2.963  0.000    29.109     8.848
 259   6 C     -0.034  1.073  2.961  0.000    28.839     8.807
 260   1 H      0.187  0.813  0.000  0.000     1.174     1.697
 261   1 H      0.050  0.950  0.000  0.000     2.320     2.382
 262   1 H      0.061  0.939  0.000  0.000     2.190     2.314
 263   1 H      0.046  0.954  0.000  0.000     2.367     2.406
 264   1 H      0.026  0.974  0.000  0.000     2.642     2.542
 265   1 H      0.042  0.958  0.000  0.000     2.421     2.433
 266   1 H      0.031  0.969  0.000  0.000     2.574     2.509
 267   1 H      0.045  0.955  0.000  0.000     2.381     2.413
 268   1 H      0.035  0.965  0.000  0.000     2.518     2.481
 269   1 H      0.182  0.818  0.000  0.000     1.202     1.717
 270   1 H      0.094  0.906  0.000  0.000     1.840     2.121
 271   1 H      0.180  0.820  0.000  0.000     1.215     1.727
 272   1 H      0.056  0.944  0.000  0.000     2.250     2.346
 273   1 H      0.191  0.809  0.000  0.000     1.151     1.681
 274   1 H      0.084  0.916  0.000  0.000     1.941     2.179
 275   1 H      0.180  0.820  0.000  0.000     1.212     1.725
 276   1 H      0.076  0.924  0.000  0.000     2.024     2.225
 277   1 H      0.183  0.817  0.000  0.000     1.195     1.712
 278   1 H      0.070  0.930  0.000  0.000     2.088     2.259

 Mol. C6AA /au·bohr⁶  :     688473.752674
 Mol. C8AA /au·bohr⁸  :   15191065.336725
 Mol. α(0) /au        :       1246.290297

 
 Wiberg/Mayer (AO) data. WBOs > 0.1 written file <wbo>
 largest (>0.05) Wiberg bond orders for each atom
           total WBO             WBO to atom ...
     1  N   3.014    C    2 1.039    H  269 0.953    H   12 0.948
     2  C   3.986    N    1 1.039    C    5 0.954    H   13 0.952    C    3 0.924    O    4 0.050
     3  C   3.941    O    4 1.603    N   21 1.327    C    2 0.924
     4  O   1.959    C    3 1.603    N   21 0.193    C    2 0.050
     5  C   3.992    C    6 1.002    H   14 0.973    H   15 0.961    C    2 0.954
     6  C   3.987    C    8 1.466    C    7 1.369    C    5 1.002    C   11 0.104
     7  C   3.992    C    9 1.476    C    6 1.369    H   16 0.964    C   10 0.124
     8  C   3.990    C    6 1.466    C   10 1.396    H   17 0.969    C    9 0.104
     9  C   3.994    C    7 1.476    C   11 1.418    H   18 0.968    C    8 0.104
    10  C   3.990    C   11 1.469    C    8 1.396    H   19 0.972    C    7 0.124
    11  C   3.992    C   10 1.469    C    9 1.418    H   20 0.970    C    6 0.104
    12  H   0.971    N    1 0.948
    13  H   0.998    C    2 0.952
    14  H   0.996    C    5 0.973
    15  H   0.997    C    5 0.961
    16  H   0.999    C    7 0.964
    17  H   0.999    C    8 0.969
    18  H   0.999    C    9 0.968
    19  H   0.999    C   10 0.972
    20  H   0.998    C   11 0.970
    21  N   3.477    C    3 1.327    C   22 0.962    H   25 0.910    O    4 0.193
    22  C   3.963    C   27 0.974    C   23 0.974    N   21 0.962    H   26 0.948    O   24 0.054
    23  C   3.883    O   24 1.862    C   22 0.974    H  270 0.952
    24  O   2.052    C   23 1.862    C   22 0.054
    25  H   0.944    N   21 0.910
    26  H   0.991    C   22 0.948
    27  C   3.979    C   28 1.002    C   22 0.974    H   35 0.965    H   34 0.963
    28  C   3.989    C   29 1.008    C   27 1.002    H   37 0.971    H   36 0.969
    29  C   3.961    C   28 1.008    N   30 0.977    H   38 0.962    H   39 0.956
    30  N   3.442    C   31 1.302    C   29 0.977    H   40 0.913    N   32 0.099    N   33 0.087
    31  C   3.975    N   32 1.339    N   30 1.302    N   33 1.299
    32  N   3.413    C   31 1.339    H   41 0.914    H   42 0.911    N   30 0.099    N   33 0.097
    33  N   3.342    C   31 1.299    H   43 0.908    H   44 0.908    N   32 0.097    N   30 0.087
    34  H   0.990    C   27 0.963
    35  H   0.992    C   27 0.965
    36  H   0.996    C   28 0.969
    37  H   0.994    C   28 0.971
    38  H   0.997    C   29 0.962
    39  H   0.994    C   29 0.956
    40  H   0.945    N   30 0.913
    41  H   0.943    N   32 0.914
    42  H   0.930    N   32 0.911
    43  H   0.935    N   33 0.908
    44  H   0.933    N   33 0.908
    45  N   3.006    C   46 1.025    H  271 0.956    H   53 0.950
    46  C   3.983    N   45 1.025    C   49 0.968    H   54 0.958    C   47 0.936
    47  C   3.939    O   48 1.596    N   64 1.323    C   46 0.936
    48  O   1.928    C   47 1.596    N   64 0.191
    49  C   3.991    C   50 0.990    H   56 0.974    H   55 0.971    C   46 0.968
    50  C   3.996    C   52 1.011    C   51 1.010    C   49 0.990    H   57 0.966
    51  C   3.994    C   50 1.010    H   58 0.984    H   60 0.984    H   59 0.983
    52  C   3.995    C   50 1.011    H   62 0.985    H   61 0.984    H   63 0.982
    53  H   0.975    N   45 0.950
    54  H   0.998    C   46 0.958
    55  H   0.997    C   49 0.971
    56  H   0.998    C   49 0.974
    57  H   0.999    C   50 0.966
    58  H   0.997    C   51 0.984
    59  H   0.999    C   51 0.983
    60  H   0.998    C   51 0.984
    61  H   0.998    C   52 0.984
    62  H   0.998    C   52 0.985
    63  H   0.999    C   52 0.982
    64  N   3.473    C   47 1.323    C   65 0.975    H   72 0.884    O   48 0.191
    65  C   3.973    C   68 0.977    N   64 0.975    C   66 0.955    H   73 0.941
    66  C   3.943    O   67 1.578    N   78 1.321    C   65 0.955
    67  O   1.914    C   66 1.578    N   78 0.191
    68  C   3.986    C   65 0.977    H   75 0.968    C   69 0.959    H   74 0.947    O   70 0.050
    69  C   3.953    O   70 1.584    N   71 1.382    C   68 0.959
    70  O   1.957    C   69 1.584    N   71 0.201    C   68 0.050    H  141 0.050
    71  N   3.422    C   69 1.382    H   77 0.911    H   76 0.833    O   70 0.201
    72  H   0.944    N   64 0.884
    73  H   0.992    C   65 0.941
    74  H   0.991    C   68 0.947
    75  H   0.995    C   68 0.968
    76  H   0.934    N   71 0.833    O  137 0.072
    77  H   0.952    N   71 0.911
    78  N   3.479    C   66 1.321    C   79 0.987    H   87 0.883    O   67 0.191
    79  C   3.971    N   78 0.987    C   82 0.965    H   88 0.952    C   80 0.944
    80  C   3.945    O   81 1.626    N   93 1.288    C   79 0.944
    81  O   1.936    C   80 1.626    N   93 0.190
    82  C   3.988    C   83 1.011    H   90 0.974    H   89 0.973    C   79 0.965
    83  C   3.984    C   82 1.011    H   91 0.973    H   92 0.959    C   84 0.912    O   85 0.053    O   86 0.051
    84  C   3.937    O   86 1.504    O   85 1.495    C   83 0.912
    85  O   1.787    C   84 1.495    O   86 0.217    C   83 0.053
    86  O   1.798    C   84 1.504    O   85 0.217    C   83 0.051
    87  H   0.945    N   78 0.883
    88  H   0.997    C   79 0.952
    89  H   0.997    C   82 0.973
    90  H   0.998    C   82 0.974
    91  H   1.000    C   83 0.973
    92  H   0.998    C   83 0.959
    93  N   3.452    C   80 1.288    C   94 0.970    H   98 0.924    O   81 0.190
    94  C   3.956    C   97 0.995    N   93 0.970    H   99 0.955    C   95 0.933
    95  C   3.945    O   96 1.645    N  103 1.291    C   94 0.933
    96  O   1.955    C   95 1.645    N  103 0.201
    97  C   3.982    C   94 0.995    H  102 0.982    H  100 0.981    H  101 0.979
    98  H   0.960    N   93 0.924
    99  H   0.995    C   94 0.955
   100  H   0.993    C   97 0.981
   101  H   0.994    C   97 0.979
   102  H   0.994    C   97 0.982
   103  N   3.459    C   95 1.291    C  104 0.975    H  111 0.901    O   96 0.201
   104  C   3.959    C  107 0.980    N  103 0.975    C  105 0.960    H  112 0.936
   105  C   3.946    O  106 1.637    N  122 1.267    C  104 0.960
   106  O   1.945    C  105 1.637    N  122 0.196
   107  C   3.979    C  108 0.980    C  104 0.980    H  113 0.968    H  114 0.966
   108  C   3.990    C  109 1.012    C  110 1.010    C  107 0.980    H  115 0.965
   109  C   3.993    C  108 1.012    H  116 0.984    H  118 0.980    H  117 0.980
   110  C   3.994    C  108 1.010    H  119 0.984    H  120 0.984    H  121 0.984
   111  H   0.951    N  103 0.901
   112  H   0.993    C  104 0.936
   113  H   0.996    C  107 0.968
   114  H   0.994    C  107 0.966
   115  H   0.998    C  108 0.965
   116  H   0.997    C  109 0.984
   117  H   0.998    C  109 0.980
   118  H   0.996    C  109 0.980
   119  H   0.997    C  110 0.984
   120  H   0.997    C  110 0.984
   121  H   0.999    C  110 0.984
   122  N   3.446    C  105 1.267    C  123 0.972    H  131 0.911    O  106 0.196
   123  C   3.967    C  124 0.989    N  122 0.972    C  126 0.964    H  132 0.944    O  125 0.054
   124  C   3.901    O  125 1.884    C  123 0.989    H  272 0.958
   125  O   2.023    C  124 1.884    C  123 0.054
   126  C   3.986    C  127 1.004    H  133 0.973    H  134 0.971    C  123 0.964
   127  C   3.991    C  126 1.004    H  135 0.964    H  136 0.952    C  128 0.950
   128  C   3.932    O  129 1.530    O  130 1.421    C  127 0.950
   129  O   1.813    C  128 1.530    O  130 0.207
   130  O   1.843    C  128 1.421    O  129 0.207    H  145 0.065
   131  H   0.957    N  122 0.911
   132  H   0.990    C  123 0.944
   133  H   0.999    C  126 0.973
   134  H   0.997    C  126 0.971
   135  H   0.996    C  127 0.964
   136  H   0.996    C  127 0.952
   137  O   1.928    H  139 0.876    H  138 0.836    H   76 0.072
   138  H   0.891    O  137 0.836
   139  H   0.906    O  137 0.876
   140  O   1.796    H  142 0.918    H  141 0.847
   141  H   0.901    O  140 0.847    O   70 0.050
   142  H   0.920    O  140 0.918
   143  O   1.788    H  144 0.918    H  145 0.833
   144  H   0.920    O  143 0.918
   145  H   0.901    O  143 0.833    O  130 0.065
   146  N   2.987    C  147 1.008    H  154 0.959    H  273 0.951
   147  C   3.986    N  146 1.008    C  148 0.970    H  155 0.957    C  150 0.957
   148  C   3.943    O  149 1.644    N  165 1.261    C  147 0.970
   149  O   1.948    C  148 1.644    N  165 0.192
   150  C   3.994    C  151 1.004    H  157 0.974    H  156 0.971    C  147 0.957
   151  C   3.996    C  152 1.013    C  150 1.004    C  153 0.998    H  158 0.967
   152  C   3.995    C  151 1.013    H  161 0.983    H  159 0.982    H  160 0.979
   153  C   3.995    C  151 0.998    H  164 0.987    H  162 0.985    H  163 0.985
   154  H   0.975    N  146 0.959
   155  H   0.998    C  147 0.957
   156  H   0.997    C  150 0.971
   157  H   0.998    C  150 0.974
   158  H   1.000    C  151 0.967
   159  H   0.998    C  152 0.982
   160  H   0.999    C  152 0.979
   161  H   0.997    C  152 0.983
   162  H   0.998    C  153 0.985
   163  H   0.997    C  153 0.985
   164  H   0.999    C  153 0.987
   165  N   3.445    C  148 1.261    C  166 0.976    H  174 0.933    O  149 0.192
   166  C   3.965    C  169 0.986    N  165 0.976    H  175 0.955    C  167 0.917    O  168 0.053
   167  C   3.951    O  168 1.652    N  182 1.306    C  166 0.917
   168  O   1.971    C  167 1.652    N  182 0.201    C  166 0.053
   169  C   3.991    C  170 1.000    C  166 0.986    H  177 0.972    H  176 0.971
   170  C   3.994    C  169 1.000    H  179 0.972    H  178 0.960    C  171 0.950    O  172 0.057
   171  C   3.945    O  172 1.645    N  173 1.325    C  170 0.950
   172  O   1.947    C  171 1.645    N  173 0.200    C  170 0.057
   173  N   3.401    C  171 1.325    H  180 0.924    H  181 0.920    O  172 0.200
   174  H   0.966    N  165 0.933
   175  H   0.996    C  166 0.955
   176  H   0.996    C  169 0.971
   177  H   0.996    C  169 0.972
   178  H   0.996    C  170 0.960
   179  H   0.997    C  170 0.972
   180  H   0.946    N  173 0.924
   181  H   0.944    N  173 0.920
   182  N   3.471    C  167 1.306    C  183 0.966    H  190 0.921    O  168 0.201
   183  C   3.957    C  186 0.967    N  182 0.966    H  191 0.952    C  184 0.932
   184  C   3.955    O  185 1.616    N  201 1.330    C  183 0.932
   185  O   1.931    C  184 1.616    N  201 0.201
   186  C   3.987    C  188 1.000    C  187 0.993    C  183 0.967    H  192 0.964
   187  C   3.994    C  189 1.015    C  186 0.993    H  193 0.977    H  194 0.975
   188  C   3.990    C  186 1.000    H  196 0.985    H  197 0.982    H  195 0.978
   189  C   3.994    C  187 1.015    H  199 0.989    H  198 0.987    H  200 0.981
   190  H   0.957    N  182 0.921
   191  H   0.996    C  183 0.952
   192  H   0.997    C  186 0.964
   193  H   0.998    C  187 0.977
   194  H   1.000    C  187 0.975
   195  H   0.995    C  188 0.978
   196  H   0.998    C  188 0.985
   197  H   0.996    C  188 0.982
   198  H   0.998    C  189 0.987
   199  H   0.999    C  189 0.989
   200  H   0.998    C  189 0.981
   201  N   3.482    C  184 1.330    C  202 0.965    H  212 0.877    O  185 0.201
   202  C   3.958    C  203 0.975    N  201 0.965    C  205 0.960    H  213 0.958    O  204 0.054
   203  C   3.908    O  204 1.919    C  202 0.975    H  274 0.951
   204  O   2.063    C  203 1.919    C  202 0.054
   205  C   3.980    C  206 1.006    H  214 0.970    H  215 0.970    C  202 0.960
   206  C   3.987    C  205 1.006    C  207 1.001    H  217 0.974    H  216 0.974
   207  C   3.954    C  206 1.001    N  208 0.985    H  219 0.963    H  218 0.962
   208  N   3.473    C  209 1.321    C  207 0.985    H  220 0.912    N  211 0.107    N  210 0.095
   209  C   3.976    N  211 1.321    N  208 1.321    N  210 1.302
   210  N   3.370    C  209 1.302    H  222 0.920    H  221 0.916    N  211 0.097    N  208 0.095
   211  N   3.397    C  209 1.321    H  224 0.917    H  223 0.915    N  208 0.107    N  210 0.097
   212  H   0.946    N  201 0.877
   213  H   0.992    C  202 0.958
   214  H   0.995    C  205 0.970
   215  H   0.993    C  205 0.970
   216  H   0.993    C  206 0.974
   217  H   0.995    C  206 0.974
   218  H   0.995    C  207 0.962
   219  H   0.991    C  207 0.963
   220  H   0.945    N  208 0.912
   221  H   0.942    N  210 0.916
   222  H   0.940    N  210 0.920
   223  H   0.935    N  211 0.915
   224  H   0.936    N  211 0.917
   225  N   2.991    C  226 1.011    H  275 0.957    H  236 0.949
   226  C   3.983    N  225 1.011    C  227 0.982    C  229 0.959    H  237 0.957    O  228 0.054
   227  C   3.886    O  228 1.870    C  226 0.982    H  276 0.956
   228  O   2.026    C  227 1.870    C  226 0.054
   229  C   3.984    C  230 1.002    H  239 0.972    H  238 0.965    C  226 0.959
   230  C   3.987    C  231 1.005    C  229 1.002    H  241 0.970    H  240 0.969
   231  C   3.947    C  230 1.005    N  232 0.967    H  243 0.961    H  242 0.953
   232  N   3.459    C  233 1.318    C  231 0.967    H  244 0.911    N  235 0.102    N  234 0.101
   233  C   3.978    N  234 1.321    N  232 1.318    N  235 1.313
   234  N   3.405    C  233 1.321    H  246 0.927    H  245 0.901    N  235 0.101    N  232 0.101
   235  N   3.394    C  233 1.313    H  247 0.920    H  248 0.919    N  232 0.102    N  234 0.101
   236  H   0.968    N  225 0.949
   237  H   0.997    C  226 0.957
   238  H   0.993    C  229 0.965
   239  H   0.995    C  229 0.972
   240  H   0.995    C  230 0.969
   241  H   0.994    C  230 0.970
   242  H   0.987    C  231 0.953
   243  H   0.994    C  231 0.961
   244  H   0.947    N  232 0.911
   245  H   0.939    N  234 0.901
   246  H   0.950    N  234 0.927
   247  H   0.941    N  235 0.920
   248  H   0.940    N  235 0.919
   249  N   3.015    C  250 1.043    H  277 0.952    H  260 0.929
   250  C   3.987    N  249 1.043    C  251 0.967    H  261 0.946    C  253 0.938    O  252 0.059
   251  C   3.882    O  252 1.881    C  250 0.967    H  278 0.955
   252  O   2.019    C  251 1.881    C  250 0.059
   253  C   3.991    C  254 1.001    H  262 0.971    H  263 0.964    C  250 0.938
   254  C   3.987    C  256 1.464    C  255 1.370    C  253 1.001    C  259 0.104
   255  C   3.992    C  257 1.476    C  254 1.370    H  264 0.965    C  258 0.123
   256  C   3.989    C  254 1.464    C  258 1.396    H  265 0.962    C  257 0.104
   257  C   3.993    C  255 1.476    C  259 1.417    H  266 0.967    C  256 0.104
   258  C   3.988    C  259 1.468    C  256 1.396    H  267 0.956    C  255 0.123
   259  C   3.991    C  258 1.468    C  257 1.417    H  268 0.966    C  254 0.104
   260  H   0.965    N  249 0.929
   261  H   0.997    C  250 0.946
   262  H   0.996    C  253 0.971
   263  H   0.998    C  253 0.964
   264  H   0.999    C  255 0.965
   265  H   0.998    C  256 0.962
   266  H   0.999    C  257 0.967
   267  H   0.998    C  258 0.956
   268  H   0.998    C  259 0.966
   269  H   0.967    N    1 0.953
   270  H   0.991    C   23 0.952
   271  H   0.968    N   45 0.956
   272  H   0.997    C  124 0.958
   273  H   0.963    N  146 0.951
   274  H   0.993    C  203 0.951
   275  H   0.967    N  225 0.957
   276  H   0.994    C  227 0.956
   277  H   0.966    N  249 0.952
   278  H   0.995    C  251 0.955
 
molecular dipole:
                 x           y           z       tot (Debye)
 q only:       18.164      38.471     -14.857
   full:       17.666      38.741     -13.015     113.169
molecular quadrupole (traceless):
                xx          xy          yy          xz          yz          zz
 q only:     -630.970     821.728     789.612    -497.867    -242.893    -158.641
  q+dip:     -639.438     793.356     825.447    -475.822    -150.539    -186.009
   full:     -640.552     790.813     825.650    -473.597    -151.980    -185.098
speedup  9.17
cpu  time for grad   12.24 s
wall time for grad    1.33 s

SCC energy    :    -422.7682779
rep           :       5.2944534
ES            :       1.4347091
AES           :      -0.0591745
AXC           :       0.1573250
disp          :      -0.3331656
XB            :       0.0000000
fix           :       0.0000000
Gborn         :       0.0000000
Gsasa         :       0.0000000
Ghb           :       0.0000000
Gshift        :       0.0000000
Gsolv         :      -0.4362663     -273.76
Etot ala COSMO:    -422.7682779
grad norm     :       0.5662597
total E       :    -417.4445908
atomizationE  :      76.2528806    47849.41
(atE without considering molecular charge,
 total energy contains solvation terms)
H-L gap (eV)  :          1.2525

------------------------------------------------------------------------
 * finished run on 2019/02/16 at 08:11:03.781     
------------------------------------------------------------------------
 total:
 * wall-time:     0 d,  0 h,  0 min,  1.524 sec
 *  cpu-time:     0 d,  0 h,  0 min, 14.347 sec
 * ratio c/w:     9.416 speedup
 SCF:
 * wall-time:     0 d,  0 h,  0 min,  1.429 sec
 *  cpu-time:     0 d,  0 h,  0 min, 13.368 sec
 * ratio c/w:     9.357 speedup

