      -----------------------------------------------------------      
     |                   =====================                   |     
     |                           x T B                           |     
     |                   =====================                   |     
     |                         S. Grimme                         |     
     |          Mulliken Center for Theoretical Chemistry        |     
     |                    University of Bonn                     |     
     |                 Version 6.0.1 (SAW181210)                 |     
      -----------------------------------------------------------      

   This program is distributed in the hope that it will be useful,
   but WITHOUT ANY WARRANTY; without even the implied warranty of
   MERCHANTABILITY or FITNESS FOR A PARTICULAR PURPOSE.
   
   FOR NON-COMMERCIAL, ACADEMIA USE ONLY.
   
   Cite this work as:
   S. Grimme, C. Bannwarth, P. Shushkov, J. Comput. Theory Chem., 2017,
   13, 1989-2009.
   C. Bannwarth, S. Ehlert and S. Grimme., ChemRxiv, 2018, preprint.
   http://doi.org/10.26434/chemrxiv.7246238.v1
   
   for sTDA-xTB:
   S. Grimme and C. Bannwarth, J. Chem. Phys., 2016, 145, 054103.
   
   in the mass-spec context:
   V. Asgeirsson, C. Bauer and S. Grimme, Chem. Sci., 2017, 8, 4879.
   
   if GBSA is used:
   P. Shushkov, F. März and S. Grimme, unpublished.
   
   for ANC optimizer:
   S. Grimme, unpublished.
   Rational Function algorithm used in ANCopt:
   F. Eckert, P. Pulay, H.-J. Werner, J. Comput. Chem., 1997, 18, 1473.
   
   with help from (in alphabetical order)
   C. Bannwarth, F. Bohle, G. Brandenburg, E. Caldeweyher, M. Checinski,
   S. Dohm, S. Ehlert, S. Ehrlich, F. März, H. Neugebauer, J. Pisarek,
   P. Pracht, P. Shushkov, and S. Spicher.
   
 * started run on 2019/02/22 at 14:26:15.490     
========================================================================
 # omp threads = 12
========================================================================
number of atoms            : 1503
number of electrons        : 4210
charge                     : -6
spin                       : .0
first test random number   : .8958

########################################################################
# WARNING! Please study the warnings concerning your input carefully
#  - Process number higher than OMP_NUM_THREADS, I hope you know what you are doing.
########################################################################

           ------------------------------------------------- 
          |                 G F N 2 - x T B                 |
          | Geometry, Frequencies, Noncovalent interactions |
          |            JCTC 2018 parametrisation            |
           ------------------------------------------------- 
 
      method parameters     
 k(s)        :  1.8500
 k(p)        :  2.2300
 k(d)        :  2.2300
 k(f)        :  2.0000
 kEN (H0ij)  : -2.0000
 D4 a1       :  0.5200
 D4 a2       :  5.0000
 D4 s6       :  1.0000
 D4 s8       :  2.7000
 D4 s9       :  5.0000
 alphaj      :  2.0000

 Solvent             : h2o
 Using internal parameter file: .param_gbsa2_h2o
 Gsolv ref. state (COSMO-RS): gsolv [1 M gas/solution]
 temperature (mdtemp)       :    298.150000000000     
 dielectric constant        :    80.2000000000000     
 rho                        :    1.00000000000000     
 mass                       :    18.0000000000000     
 surface tension            :    15.5689454083859     
 probe radius               :   0.975313790000000     
 vdW radii scaling          :    1.00000000000000     
 Gshift (Eh)                :   1.857443126794793E-003
 c1                         :    1.55243817000000     
 soset                      :   0.130326360000000     
 HB correction              :  T

            Z     q(EN)     CN     RAES       Cart. coordinates
     1  N   5.0   -0.12    4.13    3.25    11.47178     3.52091    37.48414
     2  C   4.0   -0.01    4.27    4.14    11.00484     3.72758    34.83495
     3  C   4.0    0.15    3.38    3.07    13.04804     5.29802    33.57672
     4  O   6.0   -0.31    1.28    1.80    15.07666     5.61269    34.64450
     5  H   1.0    0.09    1.06    1.44    12.81598     4.68333    38.09991
     6  H   1.0    0.05    1.06    1.44     9.92091     3.88160    38.43689
     7  H   1.0    0.06    1.04    1.43    11.93448     1.70653    37.92160
     8  H   1.0    0.06    1.05    1.44    10.77214     1.91725    34.09061
     9  H   1.0    0.04    1.05    1.44     9.25925     4.68402    34.57554
    10  N   5.0   -0.15    3.50    2.08    12.41196     6.21875    31.37384
    11  C   4.0    0.05    4.51    4.55    14.13148     7.96147    30.11089
    12  C   4.0    0.15    3.50    3.11    12.63125    10.30458    29.23533
    13  O   6.0   -0.30    1.25    1.80    10.35580    10.20079    28.80822
    14  C   4.0   -0.03    4.17    3.94    15.67027     6.73584    27.99978
    15  S   6.0   -0.03    2.47    3.10    13.91923     5.59004    25.27945
    16  H   1.0    0.11    1.13    1.45    10.76541     6.07592    30.67598
    17  H   1.0    0.07    1.08    1.44    15.40551     8.65851    31.57834
    18  H   1.0    0.06    1.09    1.44    17.02959     8.06818    27.26922
    19  H   1.0    0.05    1.10    1.44    16.48448     5.00948    28.69691
    20  N   5.0   -0.15    3.49    2.07    14.00502    12.41901    29.12619
    21  C   4.0    0.04    4.34    4.28    12.93197    14.86989    28.62833
    22  C   4.0    0.16    3.39    3.08    13.30757    15.67015    25.82441
    23  O   6.0   -0.32    1.29    1.80    15.15415    15.05745    24.60318
    24  C   4.0   -0.06    4.18    3.96    14.17271    16.83210    30.30683
    25  H   1.0    0.11    1.14    1.45    15.72980    12.23379    29.41958
    26  H   1.0    0.06    1.06    1.44    10.89630    14.71979    29.00437
    27  H   1.0    0.06    1.05    1.44    16.09451    16.73803    29.99429
    28  H   1.0    0.06    1.01    1.43    13.65252    16.58013    32.24963
    29  H   1.0    0.06    1.03    1.43    13.66652    18.65394    29.87204
    30  N   5.0   -0.14    3.50    2.08    11.52474    17.22339    24.95805
    31  C   4.0    0.03    4.44    4.44    11.53085    18.21747    22.38662
    32  C   4.0    0.15    3.41    3.08    12.49571    20.97681    22.39223
    33  O   6.0   -0.30    1.31    1.80    13.16590    22.06378    24.28319
    34  C   4.0   -0.03    4.36    4.32     8.92487    17.89218    21.22285
    35  C   4.0   -0.01    3.56    3.14     8.26123    15.19862    20.91556
    36  C   4.0   -0.04    3.44    3.09     9.36207    13.83247    18.96396
    37  C   4.0   -0.03    3.43    3.09     6.75655    13.89607    22.70847
    38  C   4.0   -0.04    3.32    3.06     8.82257    11.29559    18.60317
    39  C   4.0   -0.03    3.33    3.06     6.27162    11.30930    22.43640
    40  C   4.0   -0.04    3.35    3.06     7.19521    10.04478    20.30612
    41  H   1.0    0.10    1.10    1.44    10.18486    17.69909    26.05636
    42  H   1.0    0.05    1.08    1.44    12.90843    17.19258    21.31407
    43  H   1.0    0.06    1.06    1.44     7.67523    18.91015    22.39973
    44  H   1.0    0.04    1.04    1.43     8.87752    18.76477    19.36940
    45  H   1.0    0.05    1.00    1.43    10.53842    14.89141    17.55712
    46  H   1.0    0.06    1.03    1.43     6.02352    14.97218    24.26904
    47  H   1.0    0.04    1.00    1.43     9.75523    10.30532    16.99753
    48  H   1.0    0.05    1.03    1.43     5.02511    10.36989    23.74644
    49  H   1.0    0.05    1.02    1.43     6.75751     8.06224    20.08004
    50  N   5.0   -0.15    3.48    2.07    12.69240    22.12384    20.09970
    51  C   4.0    0.03    4.46    4.47    13.73490    24.66701    19.91909
    52  C   4.0    0.16    3.49    3.11    12.20729    26.49150    21.53450
    53  O   6.0   -0.32    1.26    1.80     9.89797    26.54634    21.47854
    54  C   4.0   -0.04    4.35    4.29    13.59630    25.48380    17.17369
    55  C   4.0   -0.03    4.23    4.06    14.88038    27.94682    16.68634
    56  C   4.0    0.24    3.14    3.03    14.80771    28.65384    13.90836
    57  O   6.0   -0.30    1.20    1.80    15.82252    30.66085    13.35486
    58  O   6.0   -0.31    1.20    1.80    13.98897    27.15438    12.30186
    59  H   1.0    0.09    1.12    1.45    12.20445    21.05476    18.72641
    60  H   1.0    0.05    1.08    1.44    15.66642    24.57682    20.47273
    61  H   1.0    0.04    1.01    1.43    14.48549    23.95257    16.00826
    62  H   1.0    0.06    1.06    1.44    11.62492    25.56138    16.77350
    63  H   1.0    0.05    1.04    1.43    13.90789    29.44135    17.71706
    64  H   1.0    0.05    1.02    1.43    16.86542    27.99455    17.29180
    65  N   5.0   -0.16    3.42    2.03    13.63199    28.15377    22.90368
    66  C   4.0    0.01    4.30    4.19    12.46375    30.02813    24.44719
    67  C   4.0    0.15    3.32    3.06    11.62093    29.13148    27.06161
    68  O   6.0   -0.31    1.21    1.80    10.76764    30.65025    28.61493
    69  H   1.0    0.11    1.12    1.45    15.45042    28.06417    22.90703
    70  H   1.0    0.04    1.05    1.44    13.75717    31.54076    24.69470
    71  H   1.0    0.05    1.06    1.44    10.80084    30.64893    23.49821
    72  N   5.0   -0.13    3.51    2.08    11.77937    26.65581    27.46476
    73  C   4.0    0.03    4.42    4.41    10.99514    25.47701    29.81989
    74  C   4.0    0.15    3.43    3.09    13.28476    25.18679    31.58229
    75  O   6.0   -0.30    1.27    1.80    15.40948    24.73845    30.79910
    76  C   4.0   -0.04    4.34    4.27     9.78858    22.89520    29.15044
    77  C   4.0   -0.03    4.24    4.08     9.06312    21.36012    31.46865
    78  C   4.0    0.24    3.15    3.03     7.59937    19.02137    30.73947
    79  O   6.0   -0.31    1.21    1.80     6.87809    18.60801    28.59038
    80  O   6.0   -0.28    1.19    1.80     7.07838    17.43486    32.53997
    81  H   1.0    0.11    1.13    1.45    12.49227    25.60919    26.16540
    82  H   1.0    0.05    1.07    1.44     9.51626    26.57400    30.67038
    83  H   1.0    0.06    1.06    1.44     8.08685    23.22380    28.19007
    84  H   1.0    0.07    1.07    1.44    11.06242    21.93380    28.01914
    85  H   1.0    0.06    1.06    1.44    10.67658    20.70883    32.42536
    86  H   1.0    0.04    1.05    1.44     7.90801    22.48455    32.68070
    87  N   5.0   -0.16    3.45    2.05    12.71748    25.32005    34.03043
    88  C   4.0    0.04    4.39    4.35    14.57063    24.84387    35.99423
    89  C   4.0    0.17    3.47    3.10    15.69360    22.23816    35.76521
    90  O   6.0   -0.31    1.27    1.80    14.29067    20.33965    35.44331
    91  C   4.0    0.03    4.14    3.88    13.31883    25.09013    38.71994
    92  O   6.0   -0.23    2.10    1.84    14.86334    24.31051    40.69133
    93  H   1.0    0.07    1.10    1.44    10.99941    25.62966    34.47053
    94  H   1.0    0.06    1.08    1.44    15.98187    26.24781    35.99022
    95  H   1.0    0.03    0.99    1.43    12.69937    27.10220    38.89237
    96  H   1.0    0.04    1.04    1.44    11.75075    23.91123    38.75690
    97  H   1.0    0.13    1.06    1.44    14.04793    24.55617    42.21993
    98  N   5.0   -0.13    3.57    2.13    18.12172    22.06049    36.10533
    99  C   4.0    0.05    4.53    4.58    19.54298    19.73073    36.16322
   100  C   4.0    0.15    3.46    3.10    20.97822    19.50980    38.64963
   101  O   6.0   -0.29    1.28    1.80    21.65335    21.41458    39.84641
   102  C   4.0   -0.02    4.19    3.98    21.17090    19.34377    33.89210
   103  S   6.0    0.00    2.61    3.10    23.12474    22.14798    33.21915
   104  H   1.0    0.12    1.15    1.45    19.12624    23.55098    36.36118
   105  H   1.0    0.06    1.09    1.44    18.14459    18.23441    36.29718
   106  H   1.0    0.05    1.08    1.44    22.44440    17.77039    34.08994
   107  H   1.0    0.05    1.11    1.45    20.18614    18.94440    32.15446
   108  N   5.0   -0.15    3.52    2.09    21.53117    17.18856    39.33783
   109  C   4.0    0.04    4.45    4.46    23.14705    16.61808    41.51089
   110  C   4.0    0.16    3.50    3.12    24.59287    14.25555    40.73584
   111  O   6.0   -0.30    1.32    1.80    23.41149    12.38989    39.88305
   112  C   4.0   -0.03    4.32    4.24    21.62686    16.30753    43.93760
   113  C   4.0    0.15    3.27    3.05    23.15881    15.06917    46.02156
   114  O   6.0   -0.33    1.31    1.80    23.72389    12.84235    45.85110
   115  N   5.0   -0.21    3.22    1.96    23.67042    16.45380    48.00877
   116  H   1.0    0.11    1.13    1.45    20.77732    15.79232    38.47772
   117  H   1.0    0.07    1.08    1.44    24.39663    18.20966    41.67576
   118  H   1.0    0.06    1.04    1.44    20.96242    18.12417    44.51093
   119  H   1.0    0.05    1.05    1.44    20.06858    15.09965    43.52313
   120  H   1.0    0.12    1.08    1.44    23.29761    18.26151    48.00725
   121  H   1.0    0.09    1.05    1.44    24.65123    15.74086    49.38279
   122  N   5.0   -0.15    3.46    2.05    27.06719    14.30038    40.93693
   123  C   4.0    0.04    4.50    4.54    28.55927    12.20909    39.79881
   124  C   4.0    0.16    3.39    3.08    28.21857     9.68241    41.25031
   125  O   6.0   -0.32    1.35    1.80    28.61836     7.71973    40.13578
   126  C   4.0   -0.02    4.30    4.20    31.38179    12.89154    39.63601
   127  C   4.0   -0.06    4.19    3.99    31.67931    15.02985    37.85294
   128  C   4.0   -0.07    4.17    3.94    32.52427    13.45765    42.19081
   129  H   1.0    0.10    1.10    1.44    27.92103    15.75814    41.65443
   130  H   1.0    0.06    1.07    1.44    27.93248    11.93661    37.87757
   131  H   1.0    0.05    1.07    1.44    32.33294    11.26714    38.80571
   132  H   1.0    0.06    1.03    1.43    32.61262    16.54995    38.81767
   133  H   1.0    0.06    1.01    1.43    29.96147    15.87278    37.15271
   134  H   1.0    0.07    1.01    1.43    32.87446    14.63856    36.28512
   135  H   1.0    0.05    1.02    1.43    31.70388    15.08859    43.00411
   136  H   1.0    0.05    1.01    1.43    34.48635    13.91065    41.79997
   137  H   1.0    0.04    1.02    1.43    32.51890    11.87505    43.38095
   138  N   5.0   -0.14    3.48    2.06    27.30192     9.67493    43.59243
   139  C   4.0    0.04    4.39    4.36    26.74038     7.33705    44.95552
   140  C   4.0    0.16    3.41    3.08    24.11874     6.24941    44.28023
   141  O   6.0   -0.32    1.27    1.80    23.80610     3.98575    44.12812
   142  C   4.0   -0.04    4.26    4.12    26.81480     7.86121    47.83986
   143  C   4.0   -0.03    4.18    3.95    26.22706     5.61864    49.56709
   144  C   4.0    0.15    3.21    3.04    28.24489     3.49614    49.40575
   145  O   6.0   -0.31    1.22    1.80    30.43558     3.98259    48.94954
   146  N   5.0   -0.20    3.21    1.96    27.46892     1.15333    49.75755
   147  H   1.0    0.10    1.11    1.45    26.87751    11.21648    44.49846
   148  H   1.0    0.06    1.05    1.44    28.18728     5.94321    44.45775
   149  H   1.0    0.05    1.04    1.43    28.66528     8.57760    48.29262
   150  H   1.0    0.05    1.03    1.43    25.50663     9.39373    48.27209
   151  H   1.0    0.04    1.02    1.43    26.16534     6.25010    51.54156
   152  H   1.0    0.05    1.03    1.43    24.39153     4.78334    49.12388
   153  H   1.0    0.09    1.04    1.44    25.74019     0.69679    50.14903
   154  H   1.0    0.10    1.05    1.44    28.66092    -0.21172    49.74461
   155  N   5.0   -0.14    3.49    2.07    22.25832     7.88852    44.08398
   156  C   4.0    0.03    4.42    4.42    19.58372     7.04551    44.03021
   157  C   4.0    0.14    3.40    3.08    18.26049     7.41127    41.50552
   158  O   6.0   -0.31    1.23    1.80    16.54905     5.99249    40.93121
   159  C   4.0   -0.04    4.33    4.25    18.13060     8.53910    46.10152
   160  C   4.0   -0.01    3.55    3.14    19.07124     8.03605    48.77511
   161  C   4.0   -0.04    3.49    3.11    18.71025     5.74090    49.84349
   162  C   4.0   -0.04    3.47    3.10    20.22612     9.97716    50.13623
   163  C   4.0   -0.05    3.39    3.08    19.49626     5.28872    52.30628
   164  C   4.0   -0.05    3.35    3.07    20.98360     9.56129    52.66166
   165  C   4.0   -0.05    3.38    3.07    20.58746     7.20969    53.68034
   166  H   1.0    0.11    1.11    1.45    22.53287     9.67712    44.12712
   167  H   1.0    0.06    1.08    1.44    19.53529     5.05364    44.40783
   168  H   1.0    0.04    1.03    1.43    18.23183    10.54656    45.63853
   169  H   1.0    0.04    1.05    1.44    16.22975     7.92066    45.84976
   170  H   1.0    0.05    1.05    1.44    17.71835     4.29887    48.86926
   171  H   1.0    0.06    1.04    1.43    20.55119    11.72238    49.23884
   172  H   1.0    0.04    1.04    1.43    19.24624     3.48601    53.15015
   173  H   1.0    0.04    1.02    1.43    21.82784    11.09734    53.71987
   174  H   1.0    0.03    1.02    1.43    21.17676     6.89341    55.63832
   175  N   5.0   -0.15    3.59    2.15    18.92794     9.48734    40.17702
   176  C   4.0    0.15    3.53    3.13    19.45160    11.46487    36.12734
   177  O   6.0   -0.31    1.31    1.80    19.44834    13.75138    35.67523
   178  H   1.0    0.11    1.14    1.45    20.37508    10.59758    40.50372
   179  H   1.0    0.07    1.11    1.44    16.75264     8.78810    37.16206
   180  C   4.0    0.04    4.55    4.61    17.65412    10.31479    38.04275
   181  C   4.0   -0.03    4.43    4.43    15.77624    12.33059    39.12571
   182  C   4.0   -0.01    3.64    3.19    13.31186    11.66960    37.84827
   183  C   4.0   -0.03    3.41    3.08    12.81202    12.87905    35.54204
   184  C   4.0   -0.04    3.34    3.06    11.70840     9.98456    39.17827
   185  C   4.0   -0.02    3.34    3.06    10.47819    12.56802    34.35771
   186  C   4.0   -0.04    3.48    3.11     9.38882     9.72840    37.93420
   187  C   4.0    0.07    3.41    3.08     8.64288    10.84153    35.60272
   188  O   6.0   -0.23    2.64    2.11     6.45105    10.33516    34.86754
   189  H   1.0    0.04    1.06    1.44    15.54845    12.12564    41.10017
   190  H   1.0    0.06    1.07    1.44    16.24384    14.14509    38.44941
   191  H   1.0    0.06    1.04    1.43    14.18136    14.16615    34.78620
   192  H   1.0    0.05    1.02    1.43    12.00443     9.01897    40.94599
   193  H   1.0    0.07    1.02    1.43    10.00656    13.48034    32.58965
   194  H   1.0    0.05    1.06    1.44     7.87435     8.52249    38.47826
   195  H   1.0    0.14    1.14    1.45     5.02624     9.07290    35.43199
   196  N   5.0   -0.08    3.69    2.25    21.06515     9.87040    35.00069
   197  C   4.0    0.03    4.55    4.61    22.79108    10.91923    33.02867
   198  C   4.0    0.16    3.48    3.11    21.24849    11.67963    30.75367
   199  O   6.0   -0.31    1.32    1.80    19.06136    10.95377    30.43611
   200  C   4.0   -0.04    4.33    4.25    24.49189     8.59432    32.40727
   201  C   4.0   -0.04    4.27    4.15    22.74582     6.34340    32.95101
   202  C   4.0   -0.01    4.36    4.31    21.29699     7.13078    35.30436
   203  H   1.0    0.06    1.05    1.44    23.74250    12.54930    33.79312
   204  H   1.0    0.05    1.04    1.43    25.05509     8.63380    30.47760
   205  H   1.0    0.05    1.03    1.43    26.09152     8.52924    33.63933
   206  H   1.0    0.05    1.01    1.43    21.38239     6.10791    31.35153
   207  H   1.0    0.04    1.05    1.44    23.76633     4.69540    33.24737
   208  H   1.0    0.06    1.06    1.44    19.57315     6.25128    35.36439
   209  H   1.0    0.06    1.03    1.43    22.28355     6.79165    37.04760
   210  N   5.0   -0.15    3.52    2.09    22.37910    13.24374    29.11808
   211  C   4.0    0.04    4.55    4.60    21.13712    13.81234    26.74452
   212  C   4.0    0.16    3.46    3.10    20.86887    11.38217    25.11368
   213  O   6.0   -0.30    1.27    1.80    22.57339     9.84682    25.00123
   214  C   4.0   -0.04    4.21    4.02    22.54635    15.80534    25.22557
   215  S   6.0   -0.03    2.47    3.10    23.00129    18.74223    26.99113
   216  H   1.0    0.10    1.13    1.45    24.05124    13.83328    29.44156
   217  H   1.0    0.06    1.10    1.44    19.33955    14.56930    27.17573
   218  H   1.0    0.05    1.11    1.45    24.35989    15.15586    24.85188
   219  H   1.0    0.05    1.07    1.44    21.46460    16.02237    23.51409
   220  N   5.0   -0.14    3.53    2.10    18.72040    11.19033    23.84444
   221  C   4.0    0.04    4.57    4.62    18.32919     9.04903    22.20123
   222  C   4.0    0.15    3.49    3.11    20.25797     9.12062    20.00120
   223  O   6.0   -0.29    1.24    1.80    20.73790    11.10306    18.93997
   224  C   4.0   -0.04    4.24    4.08    15.73502     9.07108    21.09831
   225  S   6.0    0.00    2.49    3.10    13.14430     8.81961    23.35633
   226  H   1.0    0.11    1.13    1.45    17.44678    12.47534    24.00840
   227  H   1.0    0.04    1.09    1.44    18.62706     7.32850    23.29934
   228  H   1.0    0.05    1.10    1.44    15.36236    10.84399    20.17607
   229  H   1.0    0.05    1.09    1.44    15.76438     7.61960    19.70009
   230  N   5.0   -0.09    3.64    2.20    21.23916     6.84215    19.28924
   231  C   4.0    0.04    4.55    4.61    23.24280     6.69617    17.35922
   232  C   4.0    0.15    3.40    3.08    22.24083     6.83679    14.65916
   233  O   6.0   -0.29    1.24    1.80    20.01016     6.37808    14.09978
   234  C   4.0   -0.04    4.37    4.32    24.50145     4.17624    17.97561
   235  C   4.0   -0.05    4.27    4.15    22.34478     2.52998    19.05963
   236  C   4.0   -0.02    4.41    4.39    20.87887     4.41086    20.59748
   237  H   1.0    0.07    1.07    1.44    24.51099     8.23939    17.73578
   238  H   1.0    0.05    1.03    1.43    25.39284     3.32700    16.38032
   239  H   1.0    0.04    1.03    1.43    26.00718     4.44411    19.31919
   240  H   1.0    0.04    1.03    1.43    21.13198     1.79734    17.59269
   241  H   1.0    0.03    1.03    1.43    23.01584     1.01098    20.19354
   242  H   1.0    0.04    1.05    1.44    18.94129     4.03827    20.61922
   243  H   1.0    0.04    1.05    1.44    21.70176     4.46815    22.41264
   244  N   5.0   -0.15    3.42    2.03    23.94393     7.38486    12.95543
   245  C   4.0    0.02    4.29    4.18    23.36009     7.39166    10.24886
   246  C   4.0    0.15    3.30    3.05    22.26550     9.85662     9.20711
   247  O   6.0   -0.32    1.24    1.80    21.51386     9.97545     7.05908
   248  H   1.0    0.11    1.13    1.45    25.67510     7.47140    13.34456
   249  H   1.0    0.05    1.04    1.43    25.01281     6.95165     9.20211
   250  H   1.0    0.06    1.06    1.44    21.97776     5.99849     9.89680
   251  N   5.0   -0.15    3.52    2.09    22.16532    11.79211    10.89158
   252  C   4.0    0.03    4.40    4.38    20.79407    14.10182    10.37190
   253  C   4.0    0.14    3.38    3.07    22.41636    16.49469    10.47349
   254  O   6.0   -0.30    1.25    1.80    21.45121    18.57838    10.29108
   255  C   4.0   -0.04    4.41    4.40    18.57612    14.32752    12.25515
   256  C   4.0   -0.02    4.22    4.03    16.57872    12.28265    12.13575
   257  C   4.0   -0.08    4.16    3.92    14.73840    12.62835    14.25469
   258  C   4.0   -0.07    4.14    3.87    15.24934    12.36692     9.55287
   259  H   1.0    0.10    1.13    1.45    22.81574    11.61964    12.56767
   260  H   1.0    0.06    1.07    1.44    20.02132    14.05993     8.48021
   261  H   1.0    0.05    1.05    1.44    19.19074    14.43594    14.15655
   262  H   1.0    0.06    1.05    1.44    17.69246    16.12859    11.96821
   263  H   1.0    0.06    1.06    1.44    17.41631    10.39852    12.33872
   264  H   1.0    0.04    1.02    1.43    13.94995    14.48214    14.02649
   265  H   1.0    0.05    1.01    1.43    15.69524    12.57328    16.03679
   266  H   1.0    0.04    1.01    1.43    13.38879    11.14560    14.35444
   267  H   1.0    0.05    1.00    1.43    14.44667    14.18841     9.17398
   268  H   1.0    0.04    1.01    1.43    13.89780    10.87931     9.43272
   269  H   1.0    0.05    1.01    1.43    16.59396    11.83326     8.13789
   270  N   5.0   -0.15    3.39    2.01    24.91409    16.16374    10.73558
   271  C   4.0    0.01    4.26    4.13    26.62013    18.39066    10.89105
   272  C   4.0    0.15    3.35    3.06    26.64470    19.65896    13.45643
   273  O   6.0   -0.30    1.28    1.80    27.58741    21.77846    13.66479
   274  H   1.0    0.10    1.10    1.44    25.74719    14.50275    10.78068
   275  H   1.0    0.04    1.05    1.44    28.49750    17.86455    10.47465
   276  H   1.0    0.06    1.05    1.44    26.14548    19.89362     9.64272
   277  N   5.0   -0.14    3.50    2.08    25.63316    18.45674    15.45394
   278  C   4.0    0.04    4.46    4.48    25.29777    19.77131    17.78802
   279  C   4.0    0.15    3.42    3.08    27.53160    19.47467    19.58983
   280  O   6.0   -0.31    1.25    1.80    28.58721    17.44369    19.98314
   281  C   4.0   -0.05    4.37    4.33    22.90656    18.71440    19.13087
   282  C   4.0   -0.02    4.20    4.01    20.44600    19.12607    17.62744
   283  C   4.0   -0.07    4.13    3.86    18.27865    17.80301    18.96695
   284  C   4.0   -0.07    4.13    3.87    19.92252    21.90361    17.09118
   285  H   1.0    0.09    1.13    1.45    25.11668    16.75645    15.46444
   286  H   1.0    0.07    1.10    1.44    25.25081    21.76637    17.42153
   287  H   1.0    0.06    1.04    1.43    23.14826    16.77777    19.55485
   288  H   1.0    0.04    1.04    1.43    22.63539    19.68691    20.89677
   289  H   1.0    0.05    1.09    1.44    20.69502    18.31090    15.81723
   290  H   1.0    0.04    1.02    1.43    16.56163    18.01539    17.98820
   291  H   1.0    0.05    1.01    1.43    17.94081    18.48322    20.84480
   292  H   1.0    0.06    1.01    1.43    18.56078    15.80691    19.14353
   293  H   1.0    0.04    1.02    1.43    18.20434    22.13219    16.08949
   294  H   1.0    0.05    1.02    1.43    21.37768    22.66899    15.94874
   295  H   1.0    0.05    1.01    1.43    19.75390    22.95255    18.79552
   296  N   5.0   -0.15    3.53    2.10    28.24265    21.61318    20.71936
   297  C   4.0    0.04    4.46    4.48    30.14227    21.73016    22.70412
   298  C   4.0    0.15    3.43    3.09    28.91246    22.83969    25.03459
   299  O   6.0   -0.31    1.28    1.80    27.25715    24.48264    24.90118
   300  C   4.0    0.06    4.25    4.09    32.39297    23.37044    21.70185
   301  O   6.0   -0.26    2.16    1.85    34.10530    23.41682    23.76250
   302  C   4.0   -0.07    4.13    3.87    31.68842    25.97082    20.81855
   303  H   1.0    0.11    1.12    1.45    27.43452    23.18721    20.24092
   304  H   1.0    0.06    1.08    1.44    30.63385    19.78743    23.02655
   305  H   1.0    0.05    1.05    1.44    33.25829    22.35120    20.16341
   306  H   1.0    0.15    1.08    1.44    35.40950    24.50710    23.35381
   307  H   1.0    0.05    1.02    1.43    30.81035    27.02179    22.29319
   308  H   1.0    0.06    1.02    1.43    30.43312    25.89890    19.28000
   309  H   1.0    0.05    1.04    1.43    33.31940    26.87666    20.26817
   310  N   5.0   -0.14    3.45    2.05    29.61970    21.85087    27.27113
   311  C   4.0    0.04    4.51    4.56    28.44462    22.64983    29.63180
   312  C   4.0    0.15    3.48    3.10    30.07249    24.77455    30.85216
   313  O   6.0   -0.30    1.26    1.80    32.10062    24.27732    31.82564
   314  C   4.0   -0.03    4.22    4.04    28.26700    20.42740    31.40775
   315  S   6.0   -0.01    2.41    3.10    26.70155    21.25179    34.39999
   316  H   1.0    0.10    1.09    1.44    31.09536    20.78592    27.43444
   317  H   1.0    0.06    1.10    1.44    26.65817    23.48509    29.28911
   318  H   1.0    0.05    1.07    1.44    27.18771    18.86803    30.58327
   319  H   1.0    0.07    1.10    1.44    30.09096    19.82556    31.89284
   320  N   5.0   -0.15    3.47    2.06    29.19294    27.14499    30.57104
   321  C   4.0    0.04    4.54    4.59    30.73320    29.26849    31.30778
   322  C   4.0    0.13    3.49    3.11    29.60367    30.60836    33.58531
   323  O   6.0   -0.32    1.28    1.80    27.42392    31.34636    33.51941
   324  C   4.0   -0.02    4.36    4.32    31.03645    31.23606    29.11004
   325  C   4.0   -0.04    4.24    4.08    32.17345    29.95626    26.82222
   326  C   4.0   -0.08    4.19    3.98    32.65367    33.44401    30.01808
   327  C   4.0   -0.08    4.09    3.78    32.51946    31.78352    24.64496
   328  H   1.0    0.11    1.10    1.44    27.51845    27.36555    29.94639
   329  H   1.0    0.06    1.11    1.45    32.51345    28.43928    31.63135
   330  H   1.0    0.05    1.07    1.44    29.18692    31.91231    28.62922
   331  H   1.0    0.06    1.04    1.43    33.92497    29.09693    27.34657
   332  H   1.0    0.06    1.04    1.43    30.91997    28.43771    26.29291
   333  H   1.0    0.04    1.04    1.43    31.70450    34.19078    31.60363
   334  H   1.0    0.03    1.02    1.43    32.84515    34.84881    28.63887
   335  H   1.0    0.05    1.01    1.43    34.50143    33.09332    30.65620
   336  H   1.0    0.04    1.04    1.43    33.84727    33.09746    25.18530
   337  H   1.0    0.04    1.02    1.43    30.86110    32.67318    24.09244
   338  H   1.0    0.04    1.01    1.43    33.28615    30.80450    23.03250
   339  N   5.0   -0.11    3.64    2.20    31.10113    31.00417    35.65125
   340  C   4.0    0.02    4.51    4.55    33.68074    30.17288    35.93777
   341  C   4.0    0.16    3.41    3.08    33.98582    27.39671    36.62018
   342  O   6.0   -0.32    1.30    1.80    35.98768    26.34102    36.28967
   343  C   4.0   -0.05    4.36    4.30    34.64627    31.88865    38.14351
   344  C   4.0   -0.05    4.23    4.07    32.23272    32.41370    39.76801
   345  C   4.0   -0.01    4.37    4.32    30.23924    32.68946    37.75812
   346  H   1.0    0.04    1.06    1.44    34.80731    30.56166    34.27406
   347  H   1.0    0.04    1.05    1.44    35.98149    30.95852    39.22994
   348  H   1.0    0.03    1.04    1.43    35.39822    33.58999    37.39995
   349  H   1.0    0.05    1.03    1.43    31.84662    30.78119    40.92168
   350  H   1.0    0.03    1.04    1.43    32.43584    34.07299    40.85827
   351  H   1.0    0.05    1.03    1.43    28.42019    32.04777    38.39405
   352  H   1.0    0.04    1.04    1.43    30.03146    34.52438    36.98025
   353  N   5.0   -0.14    3.40    2.02    31.98901    26.16839    37.61702
   354  C   4.0    0.03    4.22    4.03    32.15128    23.50208    38.19060
   355  C   4.0    0.09    3.14    3.03    33.85279    22.90484    40.41687
   356  O   6.0   -0.31    1.17    1.80    35.22056    20.96840    40.42308
   357  H   1.0    0.11    1.12    1.45    30.44061    26.90684    38.03345
   358  H   1.0    0.06    1.05    1.44    30.36143    22.66800    38.45055
   359  H   1.0    0.07    1.06    1.44    32.96890    22.66750    36.55683
   360  N   5.0   -0.17    3.45    2.05    32.36898    22.10128    47.38674
   361  C   4.0    0.03    4.50    4.53    31.48750    20.23556    45.53286
   362  C   4.0    0.15    3.45    3.10    29.18331    21.11234    44.01020
   363  O   6.0   -0.31    1.25    1.80    28.38774    19.70751    42.28230
   364  C   4.0   -0.04    4.41    4.40    30.74887    17.99661    47.16997
   365  C   4.0   -0.05    4.34    4.28    29.77654    19.23245    49.53569
   366  C   4.0   -0.02    4.26    4.11    31.54258    21.41863    50.00522
   367  H   1.0    0.05    1.08    1.44    32.82308    19.78837    44.11778
   368  H   1.0    0.05    1.05    1.44    29.31483    16.93529    46.27840
   369  H   1.0    0.03    1.04    1.43    32.36986    16.85164    47.57725
   370  H   1.0    0.05    1.05    1.44    27.89796    19.84094    49.27086
   371  H   1.0    0.03    1.04    1.43    29.68410    17.94015    51.08216
   372  H   1.0    0.03    1.04    1.43    30.59258    22.96778    50.84186
   373  H   1.0    0.03    1.03    1.43    33.27029    20.96163    50.95055
   374  N   5.0   -0.14    3.52    2.09    27.99274    23.21211    44.75538
   375  C   4.0    0.04    4.50    4.54    25.72883    24.06115    43.50530
   376  C   4.0    0.14    3.45    3.09    26.34181    25.80545    41.31929
   377  O   6.0   -0.31    1.26    1.80    28.32983    27.11466    41.26245
   378  C   4.0   -0.03    4.38    4.35    24.09045    25.52881    45.32282
   379  C   4.0    0.25    3.15    3.03    23.12779    24.14543    47.52256
   380  O   6.0   -0.32    1.25    1.80    23.42653    21.87647    47.76976
   381  O   6.0   -0.30    1.19    1.80    22.00824    25.52137    49.16986
   382  H   1.0    0.09    1.13    1.45    28.58720    23.98596    46.18045
   383  H   1.0    0.08    1.09    1.44    24.76848    22.39010    42.91678
   384  H   1.0    0.05    1.03    1.43    25.17881    27.17819    45.96704
   385  H   1.0    0.06    1.06    1.44    22.61461    26.22906    44.12229
   386  N   5.0   -0.14    3.42    2.03    24.64888    25.83769    39.47099
   387  C   4.0    0.02    4.33    4.25    24.94105    27.46344    37.28792
   388  C   4.0    0.15    3.40    3.08    22.47094    27.73121    35.93300
   389  O   6.0   -0.31    1.31    1.80    20.46127    26.95517    36.82493
   390  H   1.0    0.12    1.12    1.45    23.15067    24.77160    39.49029
   391  H   1.0    0.05    1.06    1.44    25.40345    29.35770    37.75208
   392  H   1.0    0.06    1.05    1.44    26.30229    26.64790    36.02761
   393  N   5.0   -0.14    3.53    2.10    22.65403    28.72946    33.61535
   394  C   4.0    0.04    4.49    4.53    20.61539    28.77168    31.78277
   395  C   4.0    0.15    3.45    3.10    21.66582    27.57754    29.35687
   396  O   6.0   -0.30    1.27    1.80    23.79027    28.01670    28.64491
   397  C   4.0    0.06    4.27    4.13    19.63858    31.42044    31.43496
   398  O   6.0   -0.26    2.14    1.85    18.78748    32.42176    33.75690
   399  C   4.0   -0.07    4.13    3.86    17.51160    31.54724    29.50907
   400  H   1.0    0.12    1.12    1.45    24.18975    29.53173    33.09570
   401  H   1.0    0.06    1.09    1.44    19.15786    27.50509    32.30575
   402  H   1.0    0.05    1.06    1.44    21.18914    32.56245    30.74384
   403  H   1.0    0.13    1.04    1.43    17.40416    31.50896    34.36143
   404  H   1.0    0.06    1.01    1.43    15.95477    30.40353    30.10952
   405  H   1.0    0.05    1.01    1.43    18.08518    30.84216    27.72031
   406  H   1.0    0.04    1.02    1.43    16.91564    33.43508    29.39059
   407  N   5.0   -0.15    3.51    2.08    20.08207    26.01963    28.08080
   408  C   4.0    0.04    4.56    4.61    20.90678    24.82186    25.77383
   409  C   4.0    0.15    3.43    3.09    20.91663    26.78548    23.59746
   410  O   6.0   -0.32    1.28    1.80    18.92747    27.90458    23.06175
   411  C   4.0   -0.03    4.24    4.08    19.22862    22.63036    25.08080
   412  S   6.0   -0.01    2.51    3.10    19.39093    20.05734    27.38106
   413  H   1.0    0.11    1.12    1.45    18.41968    25.59276    28.52768
   414  H   1.0    0.06    1.09    1.44    22.77966    24.06477    26.06316
   415  H   1.0    0.07    1.10    1.44    17.29786    23.16379    25.04726
   416  H   1.0    0.04    1.09    1.44    19.64614    22.04536    23.26110
   417  N   5.0   -0.14    3.50    2.08    23.10171    27.14727    22.53217
   418  C   4.0    0.04    4.44    4.45    23.56041    29.04591    20.61126
   419  C   4.0    0.15    3.44    3.09    24.38239    27.73862    18.19157
   420  O   6.0   -0.31    1.28    1.80    25.91678    25.95506    18.26592
   421  C   4.0   -0.03    4.36    4.30    25.63881    30.83907    21.56318
   422  C   4.0   -0.02    3.57    3.15    26.25291    32.89335    19.77802
   423  C   4.0   -0.04    3.47    3.10    28.38894    32.74530    18.20471
   424  C   4.0   -0.04    3.48    3.11    24.75957    35.03972    19.61241
   425  C   4.0   -0.03    3.46    3.10    28.93003    34.70559    16.52966
   426  C   4.0   -0.05    3.45    3.10    25.28458    36.95420    17.94809
   427  C   4.0    0.07    3.46    3.10    27.39888    36.84683    16.41533
   428  O   6.0   -0.26    2.13    1.84    28.01508    38.75009    14.85219
   429  H   1.0    0.12    1.13    1.45    24.53740    26.23771    23.14474
   430  H   1.0    0.05    1.08    1.44    21.85313    30.09130    20.34528
   431  H   1.0    0.05    1.05    1.44    24.91162    31.60394    23.30405
   432  H   1.0    0.05    1.03    1.43    27.40848    29.87232    22.00305
   433  H   1.0    0.05    1.05    1.44    29.66083    31.27406    18.36322
   434  H   1.0    0.05    1.04    1.43    23.14005    35.12474    20.84026
   435  H   1.0    0.05    1.06    1.44    30.58793    34.69212    15.52326
   436  H   1.0    0.04    1.04    1.43    24.09079    38.57709    17.86835
   437  H   1.0    0.11    1.06    1.44    26.93900    40.14094    15.16289
   438  N   5.0   -0.15    3.43    2.03    23.38417    28.58000    16.03846
   439  C   4.0    0.04    4.42    4.41    24.06781    27.46956    13.60181
   440  C   4.0    0.16    3.43    3.09    26.51848    28.56513    12.47928
   441  O   6.0   -0.30    1.23    1.80    26.79039    30.81561    12.21813
   442  C   4.0   -0.03    4.33    4.26    21.88290    27.90201    11.67745
   443  C   4.0   -0.01    3.57    3.15    22.55884    26.90145     9.10018
   444  C   4.0   -0.04    3.50    3.11    23.69145    28.31630     7.23870
   445  C   4.0   -0.03    3.49    3.11    22.15059    24.32309     8.62265
   446  C   4.0   -0.03    3.44    3.09    24.50027    27.24912     4.98322
   447  C   4.0   -0.04    3.46    3.10    22.88181    23.23586     6.38409
   448  C   4.0    0.07    3.49    3.11    24.14327    24.71979     4.54595
   449  O   6.0   -0.26    2.13    1.84    24.95265    23.54200     2.36834
   450  H   1.0    0.09    1.09    1.44    22.17183    29.89907    16.04890
   451  H   1.0    0.06    1.07    1.44    24.35345    25.49447    14.07707
   452  H   1.0    0.05    1.05    1.44    20.17408    27.13508    12.31945
   453  H   1.0    0.06    1.04    1.43    21.47451    29.87686    11.56326
   454  H   1.0    0.06    1.06    1.44    24.09228    30.20223     7.49253
   455  H   1.0    0.07    1.05    1.44    21.35546    23.11701     9.99297
   456  H   1.0    0.06    1.06    1.44    25.36846    28.35944     3.64057
   457  H   1.0    0.06    1.05    1.44    22.49294    21.32090     6.16201
   458  H   1.0    0.13    1.13    1.45    24.80068    21.92231     2.78661
   459  N   5.0   -0.15    3.47    2.06    28.19245    26.80960    11.75666
   460  C   4.0    0.04    4.42    4.41    30.35008    27.46742    10.16478
   461  C   4.0    0.19    3.29    3.05    30.33193    26.03144     7.68382
   462  O   6.0   -0.31    1.17    1.80    31.26171    27.02357     5.78319
   463  C   4.0   -0.04    4.37    4.33    32.82248    27.21034    11.53137
   464  C   4.0   -0.02    4.20    4.00    33.49710    29.43524    13.34569
   465  C   4.0   -0.07    4.15    3.90    35.54644    28.63610    15.07364
   466  C   4.0   -0.08    4.12    3.84    34.05237    31.81629    11.85362
   467  O   6.0   -0.24    2.11    1.84    29.50002    23.76103     7.80243
   468  H   1.0    0.12    1.13    1.45    27.82636    25.09838    12.14967
   469  H   1.0    0.06    1.09    1.44    30.19657    29.44569     9.65659
   470  H   1.0    0.05    1.03    1.43    32.77515    25.33720    12.38274
   471  H   1.0    0.05    1.05    1.44    34.35996    27.08740    10.20894
   472  H   1.0    0.05    1.06    1.44    31.81828    29.71512    14.51980
   473  H   1.0    0.05    1.02    1.43    37.21548    28.18994    14.04241
   474  H   1.0    0.05    1.02    1.43    34.96589    26.99493    16.10344
   475  H   1.0    0.04    1.01    1.43    35.97253    30.11656    16.39718
   476  H   1.0    0.05    1.01    1.43    32.49414    32.42107    10.71777
   477  H   1.0    0.04    1.02    1.43    35.67820    31.46444    10.71908
   478  H   1.0    0.04    1.01    1.43    34.54424    33.30863    13.16045
   479  H   1.0    0.12    1.01    1.43    29.64734    22.88213     6.12185
   480  C   4.0    0.00    3.91    3.48    40.46491    32.02579    34.70824
   481  O   6.0   -0.27    2.03    1.83    42.44339    30.99322    36.20315
   482  H   1.0    0.03    0.99    1.43    39.61321    33.65699    35.62745
   483  H   1.0    0.05    0.99    1.43    39.03081    30.61130    34.38920
   484  H   1.0    0.05    1.01    1.43    41.23378    32.50589    32.96908
   485  H   1.0    0.11    1.02    1.43    41.84376    30.57528    37.85447
   486  C   4.0    0.01    3.93    3.51     6.95213     4.98145    26.62075
   487  O   6.0   -0.25    2.02    1.83     7.48796     5.24413    29.12777
   488  H   1.0    0.04    1.01    1.43     6.03433     6.65697    26.02991
   489  H   1.0    0.05    1.02    1.43     8.65945     4.76286    25.61187
   490  H   1.0    0.04    0.98    1.43     5.65865     3.38310    26.33686
   491  H   1.0    0.11    1.00    1.43     5.88440     5.44589    30.11288
   492  C   4.0    0.01    3.94    3.52     3.21561     1.89322    21.23532
   493  O   6.0   -0.26    2.02    1.83     4.89436     3.46452    19.92765
   494  H   1.0    0.06    1.00    1.43     4.06590     0.07204    21.32787
   495  H   1.0    0.04    1.01    1.43     2.95478     2.67890    23.03252
   496  H   1.0    0.05    1.01    1.43     1.52102     1.86771    20.18540
   497  H   1.0    0.12    1.04    1.43     4.28895     5.12262    19.84491
   498  C   4.0    0.01    3.93    3.50    10.07906     4.31202    11.02991
   499  O   6.0   -0.24    2.02    1.83     9.69105     1.92948    12.09652
   500  H   1.0    0.04    1.00    1.43     9.37251     5.66064    12.37724
   501  H   1.0    0.04    0.99    1.43     9.01620     4.50752     9.30928
   502  H   1.0    0.05    1.00    1.43    12.04773     4.65468    10.70319
   503  H   1.0    0.14    1.05    1.44    10.39525     0.71064    11.00390
   504  C   4.0    0.02    3.94    3.53    31.18549     5.13284    34.95108
   505  O   6.0   -0.27    2.24    1.87    30.62726     7.58213    35.61843
   506  H   1.0    0.05    0.99    1.43    32.17546     4.09088    36.40960
   507  H   1.0    0.04    0.99    1.43    29.51288     4.09548    34.41692
   508  H   1.0    0.04    1.00    1.43    32.36879     5.23187    33.28722
   509  H   1.0    0.15    1.11    1.44    29.54324     7.55437    37.10621
   510  C   4.0    0.06    4.35    4.29    33.26895    11.31144    31.53126
   511  O   6.0   -0.25    2.08    1.84    30.68568    10.83996    31.89355
   512  H   1.0    0.07    1.08    1.44    33.67020    12.82152    32.75070
   513  H   1.0    0.07    1.08    1.44    34.29529     9.65059    31.63783
   514  H   1.0    0.05    0.95    1.42    33.72898    12.21933    29.63379
   515  H   1.0    0.11    1.00    1.43    30.19196     9.41437    30.77941
   516  C   4.0    0.01    3.95    3.53    25.49161     4.27144    26.51289
   517  O   6.0   -0.26    2.03    1.83    26.81820     3.30451    28.48342
   518  H   1.0    0.05    1.00    1.43    26.22335     6.03663    25.87230
   519  H   1.0    0.05    1.00    1.43    23.57417     4.54799    27.09619
   520  H   1.0    0.04    1.01    1.43    25.72173     2.79015    25.16031
   521  H   1.0    0.11    1.04    1.43    28.54058     3.05251    28.02503
   522  C   4.0    0.01    3.89    3.44    29.23340    14.73451    27.52765
   523  O   6.0   -0.26    2.01    1.83    27.66257    14.18848    29.71973
   524  H   1.0    0.04    0.98    1.43    28.85047    13.43079    25.98700
   525  H   1.0    0.05    1.00    1.43    28.90082    16.64410    26.95221
   526  H   1.0    0.05    0.99    1.43    31.21881    14.69026    27.96229
   527  H   1.0    0.14    1.07    1.44    28.13080    12.57311    30.33290
   528  C   4.0    0.00    3.91    3.48    14.44710    18.40571    42.16678
   529  O   6.0   -0.25    1.98    1.82    13.44925    20.60425    43.49067
   530  H   1.0    0.07    1.01    1.43    15.57883    19.10736    40.70312
   531  H   1.0    0.04    1.01    1.43    12.90767    17.40777    41.45439
   532  H   1.0    0.04    1.01    1.43    15.50767    17.39696    43.47183
   533  H   1.0    0.10    1.00    1.43    12.55752    20.07429    45.02330
   534  O   6.0   -0.31    2.06    1.83    24.13968    13.07087    15.76302
   535  H   1.0    0.14    1.00    1.43    25.52771    13.09582    14.72692
   536  H   1.0    0.14    1.01    1.43    22.87971    14.04426    15.24026
   537  O   6.0   -0.30    2.00    1.83    28.45450    12.55225    18.49723
   538  H   1.0    0.14    0.99    1.43    29.89491    13.56937    18.44473
   539  H   1.0    0.16    1.01    1.43    27.21288    13.67519    19.00609
   540  O   6.0   -0.30    1.99    1.83     9.54362    18.36346    36.65091
   541  H   1.0    0.16    1.03    1.43    11.06247    19.14494    36.43634
   542  H   1.0    0.13    0.99    1.43     8.67063    19.25551    37.85287
   543  O   6.0   -0.28    1.96    1.82    18.52153    27.66079    41.62191
   544  H   1.0    0.15    1.00    1.43    19.88805    28.22367    40.67656
   545  H   1.0    0.12    0.97    1.43    17.37334    29.06663    41.56456
   546  O   6.0   -0.31    1.96    1.82    28.39053    12.03533    10.37611
   547  H   1.0    0.12    0.98    1.43    29.72963    13.19852    10.15365
   548  H   1.0    0.12    0.96    1.43    28.16332    11.35820     8.67355
   549  O   6.0   -0.30    1.94    1.82    29.22177     7.83302    14.04299
   550  H   1.0    0.12    0.95    1.42    31.02714     7.33575    14.29666
   551  H   1.0    0.14    0.97    1.43    29.02903     9.40703    14.94825
   552  O   6.0   -0.34    1.97    1.82    11.68803    19.55522    15.37965
   553  H   1.0    0.12    1.00    1.43    12.89937    20.41564    14.45724
   554  H   1.0    0.12    0.97    1.43    10.01476    20.27900    15.26572
   555  O   6.0   -0.32    1.99    1.82    27.29569     9.70042    22.38470
   556  H   1.0    0.14    1.00    1.43    28.72387    10.63426    22.42782
   557  H   1.0    0.16    1.00    1.43    25.79651    10.53995    22.51683
   558  C   4.0    0.02    3.93    3.50    29.73626     1.54949    41.76842
   559  O   6.0   -0.27    2.07    1.83    29.58043    -1.04757    41.36276
   560  H   1.0    0.05    0.99    1.43    30.62943     1.97401    43.54255
   561  H   1.0    0.06    0.99    1.43    27.93022     2.49922    41.62672
   562  H   1.0    0.05    1.01    1.43    30.93391     2.20723    40.29147
   563  H   1.0    0.12    1.05    1.44    28.66122    -1.80066    42.70162
   564  C   4.0    0.01    3.91    3.48    27.34990    -0.49706    34.70824
   565  O   6.0   -0.26    2.04    1.83    29.32839    -1.52963    36.20315
   566  H   1.0    0.04    0.99    1.43    26.49821     1.13414    35.62745
   567  H   1.0    0.05    0.99    1.43    25.91581    -1.91156    34.38920
   568  H   1.0    0.06    1.01    1.43    28.11878    -0.01696    32.96908
   569  H   1.0    0.14    1.05    1.44    28.72876    -1.94758    37.85447
   570  C   4.0    0.01    3.93    3.51    34.92575     4.98145    26.62075
   571  O   6.0   -0.25    2.02    1.83    35.46158     5.24413    29.12777
   572  H   1.0    0.04    1.01    1.43    34.00795     6.65697    26.02991
   573  H   1.0    0.05    1.02    1.43    36.63307     4.76286    25.61187
   574  H   1.0    0.04    0.98    1.43    33.63226     3.38310    26.33686
   575  H   1.0    0.11    1.00    1.43    33.85801     5.44589    30.11288
   576  C   4.0   -0.00    3.94    3.52    16.33061    34.41608    21.23532
   577  O   6.0   -0.27    2.01    1.83    18.00936    35.98738    19.92765
   578  H   1.0    0.06    1.00    1.43    17.18090    32.59490    21.32787
   579  H   1.0    0.03    1.01    1.43    16.06978    35.20176    23.03252
   580  H   1.0    0.04    1.01    1.43    14.63602    34.39057    20.18540
   581  H   1.0    0.11    1.04    1.43    17.40395    37.64547    19.84491
   582  C   4.0    0.00    3.94    3.52    31.18922     1.89322    21.23532
   583  O   6.0   -0.27    2.02    1.83    32.86798     3.46452    19.92765
   584  H   1.0    0.06    1.00    1.43    32.03951     0.07204    21.32787
   585  H   1.0    0.04    1.01    1.43    30.92839     2.67890    23.03252
   586  H   1.0    0.04    1.01    1.43    29.49464     1.86771    20.18540
   587  H   1.0    0.12    1.04    1.43    32.26256     5.12262    19.84491
   588  C   4.0    0.01    3.93    3.50    38.05267     4.31202    11.02991
   589  O   6.0   -0.24    2.02    1.83    37.66466     1.92948    12.09652
   590  H   1.0    0.05    1.00    1.43    37.34613     5.66064    12.37724
   591  H   1.0    0.04    0.99    1.43    36.98982     4.50752     9.30928
   592  H   1.0    0.05    1.00    1.43    40.02134     4.65468    10.70319
   593  H   1.0    0.14    1.05    1.44    38.36887     0.71064    11.00390
   594  C   4.0    0.00    3.94    3.53     3.21187     5.13284    34.95108
   595  O   6.0   -0.27    2.22    1.86     2.65364     7.58213    35.61843
   596  H   1.0    0.04    0.99    1.43     4.20185     4.09088    36.40960
   597  H   1.0    0.04    0.99    1.43     1.53927     4.09548    34.41692
   598  H   1.0    0.05    1.00    1.43     4.39518     5.23187    33.28722
   599  H   1.0    0.11    1.02    1.43     1.56962     7.55437    37.10621
   600  C   4.0    0.06    4.35    4.29     5.29533    11.31144    31.53126
   601  O   6.0   -0.25    2.08    1.84     2.71207    10.83996    31.89355
   602  H   1.0    0.08    1.08    1.44     5.69659    12.82152    32.75070
   603  H   1.0    0.06    1.08    1.44     6.32167     9.65059    31.63783
   604  H   1.0    0.05    0.95    1.42     5.75537    12.21933    29.63379
   605  H   1.0    0.11    1.00    1.43     2.21835     9.41437    30.77941
   606  C   4.0    0.00    3.94    3.53    -2.48200     4.27144    26.51289
   607  O   6.0   -0.27    2.02    1.83    -1.15542     3.30451    28.48342
   608  H   1.0    0.04    1.00    1.43    -1.75026     6.03663    25.87230
   609  H   1.0    0.04    1.00    1.43    -4.39945     4.54799    27.09619
   610  H   1.0    0.04    1.01    1.43    -2.25188     2.79015    25.16031
   611  H   1.0    0.11    1.04    1.43     0.56697     3.05251    28.02503
   612  C   4.0    0.00    3.94    3.53    53.46523     4.27144    26.51289
   613  O   6.0   -0.28    2.02    1.83    54.79181     3.30451    28.48342
   614  H   1.0    0.05    1.00    1.43    54.19697     6.03663    25.87230
   615  H   1.0    0.05    1.00    1.43    51.54778     4.54799    27.09619
   616  H   1.0    0.03    1.01    1.43    53.69535     2.79015    25.16031
   617  H   1.0    0.10    1.04    1.43    56.51419     3.05251    28.02503
   618  C   4.0    0.01    3.88    3.44     1.25978    14.73451    27.52765
   619  O   6.0   -0.25    1.97    1.82    -0.31104    14.18848    29.71973
   620  H   1.0    0.04    0.98    1.43     0.87686    13.43079    25.98700
   621  H   1.0    0.05    1.00    1.43     0.92721    16.64410    26.95221
   622  H   1.0    0.05    0.99    1.43     3.24520    14.69026    27.96229
   623  H   1.0    0.14    1.07    1.44     0.15718    12.57311    30.33290
   624  C   4.0    0.00    3.91    3.48    42.42072    18.40571    42.16678
   625  O   6.0   -0.24    1.98    1.82    41.42287    20.60425    43.49067
   626  H   1.0    0.06    1.01    1.43    43.55244    19.10736    40.70312
   627  H   1.0    0.05    1.01    1.43    40.88129    17.40777    41.45439
   628  H   1.0    0.04    1.01    1.43    43.48128    17.39696    43.47183
   629  H   1.0    0.11    1.00    1.43    40.53113    20.07429    45.02330
   630  C   4.0    0.03    3.07    3.02    30.37712   -11.21616    10.27618
   631  O   6.0   -0.30    0.99    1.80    31.49867   -12.98698     8.35227
   632  H   1.0    0.05    1.98    2.45    30.78862    -9.42927    10.34523
   633  H   1.0    0.03    1.61    1.71    31.64027    -9.15799    11.10990
   634  H   1.0    0.04    0.50    1.40    30.11363   -12.65810    12.56433
   635  H   1.0    0.07    0.13    1.40    28.46901   -12.61223     7.37482
   636  C   4.0    0.02    3.07    3.02    15.51851    21.30670    10.27618
   637  O   6.0   -0.28    1.00    1.80    16.64006    19.53588     8.35227
   638  H   1.0    0.05    1.98    2.45    15.93001    23.09359    10.34523
   639  H   1.0    0.03    1.61    1.71    16.78166    23.36486    11.10990
   640  H   1.0    0.04    0.50    1.40    15.25502    19.86476    12.56433
   641  H   1.0    0.06    0.13    1.40    13.61040    19.91063     7.37482
   642  O   6.0   -0.31    1.99    1.82     0.48089    12.55225    18.49723
   643  H   1.0    0.14    0.99    1.43     1.92130    13.56937    18.44473
   644  H   1.0    0.14    1.00    1.43    -0.76074    13.67519    19.00609
   645  O   6.0   -0.31    2.02    1.83    34.63504     0.27200    15.96663
   646  H   1.0    0.15    1.01    1.43    35.92998     1.39766    15.79304
   647  H   1.0    0.16    1.00    1.43    33.19856     1.20475    15.93625
   648  O   6.0   -0.31    2.02    1.83     6.66142     0.27200    15.96663
   649  H   1.0    0.15    1.01    1.43     7.95636     1.39766    15.79304
   650  H   1.0    0.16    1.00    1.43     5.22495     1.20475    15.93625
   651  O   6.0   -0.30    2.01    1.83    37.51723    18.36346    36.65091
   652  H   1.0    0.17    1.03    1.43    39.03609    19.14494    36.43634
   653  H   1.0    0.17    1.04    1.43    36.64424    19.25551    37.85287
   654  O   6.0   -0.28    1.96    1.82    33.38014    -4.86206    41.62191
   655  H   1.0    0.15    1.00    1.43    34.74666    -4.29918    40.67656
   656  H   1.0    0.14    1.01    1.43    32.23195    -3.45622    41.56456
   657  O   6.0   -0.30    1.89    1.82     1.24815     7.83302    14.04299
   658  H   1.0    0.12    0.95    1.42     3.05353     7.33575    14.29666
   659  H   1.0    0.13    0.97    1.43     1.05541     9.40703    14.94825
   660  O   6.0   -0.26    1.93    1.82    28.88370    -4.43635     7.51763
   661  H   1.0    0.13    0.95    1.42    30.47123    -3.74361     6.82207
   662  H   1.0    0.14    0.97    1.43    27.43591    -3.77363     6.66151
   663  O   6.0   -0.33    1.97    1.82    26.54664   -12.96764    15.37965
   664  H   1.0    0.13    1.00    1.43    27.75798   -12.10722    14.45724
   665  H   1.0    0.12    0.97    1.43    24.87337   -12.24386    15.26572
   666  O   6.0   -0.34    1.97    1.82    39.66164    19.55522    15.37965
   667  H   1.0    0.13    0.99    1.43    40.87299    20.41564    14.45724
   668  H   1.0    0.12    0.97    1.43    37.98837    20.27900    15.26572
   669  O   6.0   -0.33    1.98    1.82    -0.67792     9.70042    22.38470
   670  H   1.0    0.14    1.00    1.43     0.75025    10.63426    22.42782
   671  H   1.0    0.13    0.99    1.43    -2.17710    10.53995    22.51683
   672  N   5.0   -0.12    4.13    3.25    39.44540     3.52091    37.48414
   673  C   4.0   -0.01    4.27    4.14    38.97846     3.72758    34.83495
   674  C   4.0    0.15    3.38    3.07    41.02165     5.29802    33.57672
   675  O   6.0   -0.31    1.28    1.80    43.05027     5.61269    34.64450
   676  H   1.0    0.09    1.06    1.44    40.78959     4.68333    38.09991
   677  H   1.0    0.06    1.06    1.44    37.89452     3.88160    38.43689
   678  H   1.0    0.06    1.04    1.43    39.90809     1.70653    37.92160
   679  H   1.0    0.06    1.05    1.44    38.74576     1.91725    34.09061
   680  H   1.0    0.04    1.05    1.44    37.23286     4.68402    34.57554
   681  N   5.0   -0.15    3.50    2.08    40.38558     6.21875    31.37384
   682  C   4.0    0.05    4.51    4.55    42.10510     7.96147    30.11089
   683  C   4.0    0.15    3.50    3.11    40.60486    10.30458    29.23533
   684  O   6.0   -0.30    1.25    1.80    38.32941    10.20079    28.80822
   685  C   4.0   -0.03    4.17    3.94    43.64388     6.73584    27.99978
   686  S   6.0   -0.03    2.47    3.10    41.89285     5.59004    25.27945
   687  H   1.0    0.11    1.13    1.45    38.73903     6.07592    30.67598
   688  H   1.0    0.07    1.08    1.44    43.37913     8.65851    31.57834
   689  H   1.0    0.06    1.09    1.44    45.00320     8.06818    27.26922
   690  H   1.0    0.05    1.10    1.44    44.45809     5.00948    28.69691
   691  N   5.0   -0.15    3.49    2.07    41.97863    12.41901    29.12619
   692  C   4.0    0.04    4.34    4.28    40.90558    14.86989    28.62833
   693  C   4.0    0.16    3.39    3.08    41.28118    15.67015    25.82441
   694  O   6.0   -0.32    1.29    1.80    43.12776    15.05745    24.60318
   695  C   4.0   -0.06    4.18    3.96    42.14633    16.83210    30.30683
   696  H   1.0    0.11    1.14    1.45    43.70341    12.23379    29.41958
   697  H   1.0    0.06    1.06    1.44    38.86991    14.71979    29.00437
   698  H   1.0    0.06    1.05    1.44    44.06812    16.73803    29.99429
   699  H   1.0    0.06    1.01    1.43    41.62614    16.58013    32.24963
   700  H   1.0    0.06    1.03    1.43    41.64013    18.65394    29.87204
   701  N   5.0   -0.14    3.50    2.08    39.49835    17.22339    24.95805
   702  C   4.0    0.03    4.44    4.44    39.50446    18.21747    22.38662
   703  C   4.0    0.15    3.41    3.08    40.46932    20.97681    22.39223
   704  O   6.0   -0.30    1.31    1.80    41.13952    22.06378    24.28319
   705  C   4.0   -0.03    4.36    4.32    36.89848    17.89218    21.22285
   706  C   4.0   -0.01    3.56    3.14    36.23484    15.19862    20.91556
   707  C   4.0   -0.04    3.44    3.09    37.33569    13.83247    18.96396
   708  C   4.0   -0.03    3.43    3.09    34.73016    13.89607    22.70847
   709  C   4.0   -0.04    3.32    3.06    36.79619    11.29559    18.60317
   710  C   4.0   -0.03    3.33    3.06    34.24523    11.30930    22.43640
   711  C   4.0   -0.04    3.35    3.06    35.16882    10.04478    20.30612
   712  H   1.0    0.10    1.10    1.44    38.15848    17.69909    26.05636
   713  H   1.0    0.05    1.08    1.44    40.88205    17.19258    21.31407
   714  H   1.0    0.06    1.06    1.44    35.64884    18.91015    22.39973
   715  H   1.0    0.05    1.04    1.43    36.85113    18.76477    19.36940
   716  H   1.0    0.05    1.00    1.43    38.51203    14.89141    17.55712
   717  H   1.0    0.06    1.03    1.43    33.99714    14.97218    24.26904
   718  H   1.0    0.04    1.00    1.43    37.72884    10.30532    16.99753
   719  H   1.0    0.05    1.03    1.43    32.99873    10.36989    23.74644
   720  H   1.0    0.05    1.02    1.43    34.73113     8.06224    20.08004
   721  N   5.0   -0.15    3.48    2.07    40.66602    22.12384    20.09970
   722  C   4.0    0.03    4.46    4.47    41.70852    24.66701    19.91909
   723  C   4.0    0.16    3.49    3.11    40.18091    26.49150    21.53450
   724  O   6.0   -0.32    1.26    1.80    37.87158    26.54634    21.47854
   725  C   4.0   -0.04    4.35    4.29    41.56992    25.48380    17.17369
   726  C   4.0   -0.03    4.23    4.06    42.85399    27.94682    16.68634
   727  C   4.0    0.24    3.14    3.03    42.78132    28.65384    13.90836
   728  O   6.0   -0.31    1.20    1.80    43.79613    30.66085    13.35486
   729  O   6.0   -0.30    1.20    1.80    41.96259    27.15438    12.30186
   730  H   1.0    0.09    1.12    1.45    40.17806    21.05476    18.72641
   731  H   1.0    0.05    1.08    1.44    43.64003    24.57682    20.47273
   732  H   1.0    0.05    1.01    1.43    42.45911    23.95257    16.00826
   733  H   1.0    0.05    1.06    1.44    39.59854    25.56138    16.77350
   734  H   1.0    0.05    1.04    1.43    41.88150    29.44135    17.71706
   735  H   1.0    0.05    1.02    1.43    44.83903    27.99455    17.29180
   736  N   5.0   -0.16    3.42    2.03    41.60561    28.15377    22.90368
   737  C   4.0    0.01    4.29    4.19    40.43736    30.02813    24.44719
   738  C   4.0    0.15    3.32    3.06    39.59454    29.13148    27.06161
   739  O   6.0   -0.32    1.21    1.80    38.74125    30.65025    28.61493
   740  H   1.0    0.11    1.12    1.45    43.42403    28.06417    22.90703
   741  H   1.0    0.04    1.05    1.44    41.73079    31.54076    24.69470
   742  H   1.0    0.05    1.06    1.44    38.77446    30.64893    23.49821
   743  N   5.0   -0.13    3.51    2.08    39.75298    26.65581    27.46476
   744  C   4.0    0.04    4.42    4.41    38.96875    25.47701    29.81989
   745  C   4.0    0.16    3.43    3.09    41.25837    25.18679    31.58229
   746  O   6.0   -0.30    1.27    1.80    43.38310    24.73845    30.79910
   747  C   4.0   -0.03    4.34    4.27    37.76219    22.89520    29.15044
   748  C   4.0   -0.02    4.25    4.09    37.03674    21.36012    31.46865
   749  C   4.0    0.24    3.15    3.03    35.57299    19.02137    30.73947
   750  O   6.0   -0.31    1.21    1.80    34.85171    18.60801    28.59038
   751  O   6.0   -0.28    1.19    1.80    35.05200    17.43486    32.53997
   752  H   1.0    0.11    1.13    1.45    40.46589    25.60919    26.16540
   753  H   1.0    0.06    1.07    1.44    37.48987    26.57400    30.67038
   754  H   1.0    0.07    1.06    1.44    36.06046    23.22380    28.19007
   755  H   1.0    0.07    1.07    1.44    39.03604    21.93380    28.01914
   756  H   1.0    0.06    1.06    1.44    38.65020    20.70883    32.42536
   757  H   1.0    0.08    1.05    1.44    35.88163    22.48455    32.68070
   758  N   5.0   -0.15    3.47    2.06    40.69110    25.32005    34.03043
   759  C   4.0    0.05    4.39    4.36    42.54424    24.84387    35.99423
   760  C   4.0    0.16    3.47    3.10    43.66721    22.23816    35.76521
   761  O   6.0   -0.31    1.27    1.80    42.26428    20.33965    35.44331
   762  C   4.0    0.04    4.14    3.88    41.29244    25.09013    38.71994
   763  O   6.0   -0.25    2.09    1.84    42.83695    24.31051    40.69133
   764  H   1.0    0.11    1.14    1.45    38.97303    25.62966    34.47053
   765  H   1.0    0.05    1.08    1.44    43.95549    26.24781    35.99022
   766  H   1.0    0.04    0.99    1.43    40.67298    27.10220    38.89237
   767  H   1.0    0.07    1.05    1.44    39.72436    23.91123    38.75690
   768  H   1.0    0.13    1.06    1.44    42.02154    24.55617    42.21993
   769  N   5.0   -0.13    3.56    2.12    46.09534    22.06049    36.10533
   770  C   4.0    0.04    4.53    4.58    47.51660    19.73073    36.16322
   771  C   4.0    0.14    3.45    3.10    48.95183    19.50980    38.64963
   772  O   6.0   -0.30    1.23    1.80    49.62697    21.41458    39.84641
   773  C   4.0   -0.03    4.12    3.84    49.14451    19.34377    33.89210
   774  S   6.0   -0.04    2.46    3.10    51.09836    22.14798    33.21915
   775  H   1.0    0.09    1.12    1.45    47.09986    23.55098    36.36118
   776  H   1.0    0.06    1.09    1.44    46.11820    18.23441    36.29718
   777  H   1.0    0.05    1.08    1.44    50.41801    17.77039    34.08994
   778  H   1.0    0.05    1.11    1.45    48.15975    18.94440    32.15446
   779  H   1.0    0.05    1.00    1.43    52.95684    21.95323    31.93446
   780  N   5.0   -0.15    3.52    2.09    49.50478    17.18856    39.33783
   781  C   4.0    0.04    4.35    4.29    51.12066    16.61808    41.51089
   782  C   4.0    0.08    3.27    3.05    52.56648    14.25555    40.73584
   783  O   6.0   -0.30    1.19    1.80    51.38510    12.38989    39.88305
   784  C   4.0   -0.03    4.32    4.24    49.60047    16.30753    43.93760
   785  C   4.0    0.14    3.27    3.05    51.13242    15.06917    46.02156
   786  O   6.0   -0.32    1.27    1.80    51.69751    12.84235    45.85110
   787  N   5.0   -0.22    3.21    1.96    51.64404    16.45380    48.00877
   788  H   1.0    0.11    1.13    1.45    48.75094    15.79232    38.47772
   789  H   1.0    0.05    1.07    1.44    52.37024    18.20966    41.67576
   790  H   1.0    0.04    1.04    1.44    48.93604    18.12417    44.51093
   791  H   1.0    0.05    1.05    1.44    48.04219    15.09965    43.52313
   792  H   1.0    0.07    1.05    1.44    51.27122    18.26151    48.00725
   793  H   1.0    0.08    1.05    1.44    52.62485    15.74086    49.38279
   794  N   5.0   -0.21    3.24    1.97    -0.42260   -10.39902    20.09970
   795  C   4.0    0.03    4.25    4.10     0.61990    -7.85585    19.91909
   796  C   4.0    0.08    3.23    3.04    -0.90771    -6.03136    21.53450
   797  O   6.0   -0.31    1.13    1.80    -3.21703    -5.97651    21.47854
   798  C   4.0   -0.04    4.34    4.28     0.48130    -7.03906    17.17369
   799  C   4.0   -0.03    4.23    4.06     1.76538    -4.57604    16.68634
   800  C   4.0    0.25    3.14    3.03     1.69271    -3.86902    13.90836
   801  O   6.0   -0.29    1.21    1.80     2.70752    -1.86201    13.35486
   802  O   6.0   -0.31    1.20    1.80     0.87397    -5.36848    12.30186
   803  H   1.0    0.07    1.04    1.43    -0.91055   -11.46809    18.72641
   804  H   1.0    0.04    1.07    1.44     2.55141    -7.94604    20.47273
   805  H   1.0    0.04    1.01    1.43     1.37049    -8.57028    16.00826
   806  H   1.0    0.06    1.06    1.44    -1.49008    -6.96148    16.77350
   807  H   1.0    0.05    1.04    1.43     0.79288    -3.08151    17.71706
   808  H   1.0    0.05    1.02    1.43     3.75042    -4.52831    17.29180
   809  N   5.0   -0.20    3.26    1.97    26.38335   -15.29947    24.95805
   810  C   4.0    0.03    4.34    4.28    26.38946   -14.30539    22.38662
   811  C   4.0    0.15    3.41    3.08    27.35432   -11.54605    22.39223
   812  O   6.0   -0.30    1.30    1.80    28.02451   -10.45908    24.28319
   813  C   4.0   -0.03    4.36    4.32    23.78348   -14.63068    21.22285
   814  C   4.0   -0.01    3.56    3.14    23.11984   -17.32424    20.91556
   815  C   4.0   -0.04    3.44    3.09    24.22069   -18.69039    18.96396
   816  C   4.0   -0.03    3.43    3.09    21.61516   -18.62679    22.70847
   817  C   4.0   -0.05    3.31    3.06    23.68118   -21.22726    18.60317
   818  C   4.0   -0.05    3.32    3.06    21.13023   -21.21356    22.43640
   819  C   4.0   -0.05    3.34    3.06    22.05382   -22.47807    20.30612
   820  H   1.0    0.11    1.05    1.44    25.04348   -14.82377    26.05636
   821  H   1.0    0.04    1.07    1.44    27.76705   -15.33028    21.31407
   822  H   1.0    0.06    1.06    1.44    22.53384   -13.61271    22.39973
   823  H   1.0    0.05    1.04    1.43    23.73613   -13.75809    19.36940
   824  H   1.0    0.05    1.00    1.43    25.39703   -17.63145    17.55712
   825  H   1.0    0.06    1.03    1.43    20.88213   -17.55067    24.26904
   826  H   1.0    0.04    1.00    1.43    24.61384   -22.21754    16.99753
   827  H   1.0    0.04    1.03    1.43    19.88373   -22.15296    23.74644
   828  H   1.0    0.03    1.02    1.43    21.61612   -24.46062    20.08004
   829  N   5.0   -0.15    3.48    2.06    27.55102   -10.39902    20.09970
   830  C   4.0    0.03    4.46    4.47    28.59351    -7.85585    19.91909
   831  C   4.0    0.16    3.49    3.11    27.06590    -6.03136    21.53450
   832  O   6.0   -0.32    1.26    1.80    24.75658    -5.97651    21.47854
   833  C   4.0   -0.04    4.35    4.29    28.45491    -7.03906    17.17369
   834  C   4.0   -0.03    4.23    4.06    29.73899    -4.57604    16.68634
   835  C   4.0    0.24    3.14    3.03    29.66632    -3.86902    13.90836
   836  O   6.0   -0.28    1.21    1.80    30.68113    -1.86201    13.35486
   837  O   6.0   -0.29    1.23    1.80    28.84759    -5.36848    12.30186
   838  H   1.0    0.09    1.12    1.45    27.06306   -11.46809    18.72641
   839  H   1.0    0.05    1.08    1.44    30.52503    -7.94604    20.47273
   840  H   1.0    0.05    1.01    1.43    29.34410    -8.57028    16.00826
   841  H   1.0    0.05    1.06    1.44    26.48353    -6.96148    16.77350
   842  H   1.0    0.05    1.04    1.43    28.76650    -3.08151    17.71706
   843  H   1.0    0.06    1.02    1.43    31.72403    -4.52831    17.29180
   844  N   5.0   -0.16    3.42    2.03    28.49061    -4.36908    22.90368
   845  C   4.0    0.01    4.30    4.19    27.32236    -2.49473    24.44719
   846  C   4.0    0.15    3.32    3.06    26.47954    -3.39138    27.06161
   847  O   6.0   -0.31    1.22    1.80    25.62625    -1.87261    28.61493
   848  H   1.0    0.11    1.12    1.45    30.30903    -4.45869    22.90703
   849  H   1.0    0.04    1.05    1.44    28.61578    -0.98210    24.69470
   850  H   1.0    0.05    1.06    1.44    25.65945    -1.87393    23.49821
   851  N   5.0   -0.13    3.51    2.08    26.63798    -5.86705    27.46476
   852  C   4.0    0.04    4.42    4.41    25.85375    -7.04584    29.81989
   853  C   4.0    0.16    3.43    3.09    28.14337    -7.33607    31.58229
   854  O   6.0   -0.30    1.27    1.80    30.26810    -7.78441    30.79910
   855  C   4.0   -0.03    4.34    4.27    24.64719    -9.62766    29.15044
   856  C   4.0   -0.02    4.24    4.09    23.92173   -11.16274    31.46865
   857  C   4.0    0.25    3.14    3.03    22.45799   -13.50149    30.73947
   858  O   6.0   -0.31    1.21    1.80    21.73671   -13.91485    28.59038
   859  O   6.0   -0.28    1.16    1.80    21.93699   -15.08800    32.53997
   860  H   1.0    0.11    1.13    1.45    27.35089    -6.91367    26.16540
   861  H   1.0    0.06    1.07    1.44    24.37487    -5.94886    30.67038
   862  H   1.0    0.07    1.06    1.44    22.94546    -9.29906    28.19007
   863  H   1.0    0.08    1.07    1.44    25.92103   -10.58906    28.01914
   864  H   1.0    0.07    1.06    1.44    25.53519   -11.81403    32.42536
   865  H   1.0    0.08    1.05    1.44    22.76662   -10.03831    32.68070
   866  N   5.0   -0.15    3.47    2.06    27.57609    -7.20281    34.03043
   867  C   4.0    0.05    4.39    4.36    29.42924    -7.67899    35.99423
   868  C   4.0    0.17    3.47    3.10    30.55221   -10.28470    35.76521
   869  O   6.0   -0.28    1.23    1.80    29.14928   -12.18320    35.44331
   870  C   4.0    0.05    4.14    3.89    28.17744    -7.43272    38.71994
   871  O   6.0   -0.23    2.08    1.84    29.72195    -8.21235    40.69133
   872  H   1.0    0.11    1.14    1.45    25.85802    -6.89319    34.47053
   873  H   1.0    0.07    1.08    1.44    30.84049    -6.27504    35.99022
   874  H   1.0    0.05    0.99    1.43    27.55798    -5.42066    38.89237
   875  H   1.0    0.07    1.05    1.44    26.60936    -8.61163    38.75690
   876  H   1.0    0.12    1.05    1.44    28.90654    -7.96668    42.21993
   877  N   5.0   -0.13    3.57    2.13    32.98033   -10.46237    36.10533
   878  C   4.0    0.04    4.41    4.41    34.40160   -12.79212    36.16322
   879  C   4.0    0.07    3.24    3.04    35.83683   -13.01306    38.64963
   880  O   6.0   -0.29    1.17    1.80    36.51196   -11.10828    39.84641
   881  C   4.0   -0.04    4.10    3.81    36.02951   -13.17909    33.89210
   882  S   6.0   -0.04    2.48    3.10    37.98335   -10.37487    33.21915
   883  H   1.0    0.12    1.15    1.45    33.98486    -8.97188    36.36118
   884  H   1.0    0.05    1.08    1.44    33.00320   -14.28844    36.29718
   885  H   1.0    0.03    1.08    1.44    37.30301   -14.75247    34.08994
   886  H   1.0    0.05    1.11    1.44    35.04475   -13.57846    32.15446
   887  H   1.0    0.05    0.99    1.43    39.84184   -10.56963    31.93446
   888  N   5.0   -0.22    3.26    1.97    16.83222    13.23833    -5.93769
   889  C   4.0    0.04    4.25    4.10    18.44810    12.66785    -3.76463
   890  C   4.0    0.09    3.27    3.05    19.89392    10.30531    -4.53968
   891  O   6.0   -0.29    1.13    1.80    18.71254     8.43966    -5.39247
   892  C   4.0   -0.04    4.32    4.24    16.92791    12.35730    -1.33792
   893  C   4.0    0.15    3.27    3.05    18.45986    11.11894     0.74604
   894  O   6.0   -0.32    1.31    1.80    19.02494     8.89212     0.57558
   895  N   5.0   -0.21    3.22    1.96    18.97147    12.50357     2.73325
   896  H   1.0    0.09    1.05    1.44    16.07837    11.84208    -6.79780
   897  H   1.0    0.06    1.07    1.44    19.69768    14.25943    -3.59976
   898  H   1.0    0.03    1.04    1.44    16.26347    14.17393    -0.76459
   899  H   1.0    0.05    1.05    1.44    15.36963    11.14941    -1.75239
   900  H   1.0    0.08    1.05    1.44    18.59866    14.31128     2.73173
   901  H   1.0    0.12    1.07    1.44    19.95228    11.79063     4.10727
   902  N   5.0   -0.20    3.23    1.96    22.60297     5.72470    -1.68309
   903  C   4.0    0.04    4.28    4.17    22.04143     3.38682    -0.32000
   904  C   4.0    0.16    3.40    3.08    19.41979     2.29918    -0.99529
   905  O   6.0   -0.31    1.27    1.80    19.10715     0.03552    -1.14740
   906  C   4.0   -0.03    4.26    4.12    22.11585     3.91098     2.56434
   907  C   4.0   -0.03    4.18    3.95    21.52811     1.66840     4.29157
   908  C   4.0    0.16    3.21    3.04    23.54595    -0.45409     4.13023
   909  O   6.0   -0.30    1.22    1.80    25.73663     0.03236     3.67402
   910  N   5.0   -0.20    3.21    1.96    22.76997    -2.79690     4.48203
   911  H   1.0    0.11    1.07    1.44    22.17856     7.26624    -0.77706
   912  H   1.0    0.05    1.05    1.44    23.48834     1.99298    -0.81777
   913  H   1.0    0.05    1.04    1.43    23.96633     4.62736     3.01710
   914  H   1.0    0.06    1.03    1.43    20.80768     5.44349     2.99657
   915  H   1.0    0.04    1.02    1.43    21.46639     2.29987     6.26604
   916  H   1.0    0.06    1.03    1.43    19.69258     0.83310     3.84836
   917  H   1.0    0.12    1.07    1.44    21.04124    -3.25344     4.87351
   918  H   1.0    0.10    1.05    1.44    23.96197    -4.16195     4.46909
   919  N   5.0   -0.14    3.46    2.06    17.55937     3.93829    -1.19154
   920  C   4.0    0.04    4.33    4.26    14.88477     3.09527    -1.24531
   921  C   4.0    0.08    3.19    3.03    13.56154     3.46104    -3.77000
   922  O   6.0   -0.30    1.13    1.80    11.85010     2.04225    -4.34431
   923  C   4.0   -0.04    4.32    4.24    13.43165     4.58886     0.82600
   924  C   4.0   -0.01    3.55    3.14    14.37229     4.08581     3.49959
   925  C   4.0   -0.04    3.49    3.11    14.01130     1.79067     4.56797
   926  C   4.0   -0.04    3.47    3.10    15.52717     6.02692     4.86071
   927  C   4.0   -0.04    3.40    3.08    14.79731     1.33848     7.03076
   928  C   4.0   -0.04    3.35    3.07    16.28465     5.61106     7.38614
   929  C   4.0   -0.04    3.39    3.08    15.88851     3.25946     8.40482
   930  H   1.0    0.12    1.11    1.45    17.83392     5.72688    -1.14840
   931  H   1.0    0.07    1.08    1.44    14.83634     1.10341    -0.86769
   932  H   1.0    0.04    1.03    1.43    13.53288     6.59633     0.36301
   933  H   1.0    0.05    1.05    1.44    11.53080     3.97043     0.57423
   934  H   1.0    0.05    1.05    1.44    13.01941     0.34863     3.59374
   935  H   1.0    0.06    1.04    1.43    15.85224     7.77214     3.96331
   936  H   1.0    0.06    1.04    1.43    14.54730    -0.46423     7.87463
   937  H   1.0    0.06    1.02    1.43    17.12889     7.14711     8.44435
   938  H   1.0    0.06    1.02    1.43    16.47781     2.94318    10.36280
   939  N   5.0   -0.22    3.25    1.97    -2.34045    18.45674    15.45394
   940  C   4.0    0.02    4.34    4.28    -2.67584    19.77131    17.78802
   941  C   4.0    0.14    3.41    3.08    -0.44201    19.47467    19.58983
   942  O   6.0   -0.31    1.25    1.80     0.61359    17.44369    19.98314
   943  C   4.0   -0.05    4.37    4.32    -5.06705    18.71440    19.13087
   944  C   4.0   -0.03    4.20    4.01    -7.52762    19.12607    17.62744
   945  C   4.0   -0.10    4.13    3.85    -9.69497    17.80301    18.96695
   946  C   4.0   -0.10    4.13    3.87    -8.05110    21.90361    17.09118
   947  H   1.0    0.09    1.06    1.44    -2.85694    16.75645    15.46444
   948  H   1.0    0.03    1.08    1.44    -2.72280    21.76637    17.42153
   949  H   1.0    0.04    1.04    1.43    -4.82536    16.77777    19.55485
   950  H   1.0    0.04    1.04    1.43    -5.33822    19.68691    20.89677
   951  H   1.0    0.03    1.09    1.44    -7.27859    18.31090    15.81723
   952  H   1.0    0.02    1.02    1.43   -11.41198    18.01539    17.98820
   953  H   1.0    0.03    1.01    1.43   -10.03280    18.48322    20.84480
   954  H   1.0    0.03    1.01    1.43    -9.41283    15.80691    19.14353
   955  H   1.0    0.02    1.02    1.43    -9.76928    22.13219    16.08949
   956  H   1.0    0.03    1.02    1.43    -6.59593    22.66899    15.94874
   957  H   1.0    0.03    1.01    1.43    -8.21971    22.95255    18.79552
   958  N   5.0   -0.15    3.53    2.10     0.26904    21.61318    20.71936
   959  C   4.0    0.04    4.36    4.32     2.16865    21.73016    22.70412
   960  C   4.0    0.08    3.23    3.04     0.93885    22.83969    25.03459
   961  O   6.0   -0.31    1.13    1.80    -0.71646    24.48264    24.90118
   962  C   4.0    0.06    4.25    4.09     4.41935    23.37044    21.70185
   963  O   6.0   -0.26    2.16    1.85     6.13168    23.41682    23.76250
   964  C   4.0   -0.07    4.13    3.86     3.71480    25.97082    20.81855
   965  H   1.0    0.08    1.09    1.44    -0.53909    23.18721    20.24092
   966  H   1.0    0.06    1.08    1.44     2.66024    19.78743    23.02655
   967  H   1.0    0.04    1.05    1.44     5.28468    22.35120    20.16341
   968  H   1.0    0.16    1.08    1.44     7.43588    24.50710    23.35381
   969  H   1.0    0.05    1.02    1.43     2.83674    27.02179    22.29319
   970  H   1.0    0.03    1.02    1.43     2.45951    25.89890    19.28000
   971  H   1.0    0.05    1.04    1.43     5.34579    26.87666    20.26817
   972  N   5.0   -0.22    3.22    1.96    50.23193     7.88852    44.08398
   973  C   4.0    0.03    4.31    4.22    47.55733     7.04551    44.03021
   974  C   4.0    0.14    3.40    3.08    46.23410     7.41127    41.50552
   975  O   6.0   -0.32    1.23    1.80    44.52266     5.99249    40.93121
   976  C   4.0   -0.04    4.33    4.25    46.10421     8.53910    46.10152
   977  C   4.0   -0.02    3.55    3.14    47.04485     8.03605    48.77511
   978  C   4.0   -0.05    3.49    3.11    46.68386     5.74090    49.84349
   979  C   4.0   -0.04    3.47    3.10    48.19974     9.97716    50.13623
   980  C   4.0   -0.06    3.39    3.08    47.46987     5.28872    52.30628
   981  C   4.0   -0.06    3.35    3.07    48.95721     9.56129    52.66166
   982  C   4.0   -0.06    3.38    3.07    48.56107     7.20969    53.68034
   983  H   1.0    0.12    1.07    1.44    50.50649     9.67712    44.12712
   984  H   1.0    0.04    1.07    1.44    47.50891     5.05364    44.40783
   985  H   1.0    0.04    1.03    1.43    46.20544    10.54656    45.63853
   986  H   1.0    0.04    1.05    1.44    44.20337     7.92066    45.84976
   987  H   1.0    0.04    1.05    1.44    45.69197     4.29887    48.86926
   988  H   1.0    0.06    1.04    1.43    48.52480    11.72238    49.23884
   989  H   1.0    0.03    1.04    1.43    47.21986     3.48601    53.15015
   990  H   1.0    0.03    1.02    1.43    49.80146    11.09734    53.71987
   991  H   1.0    0.03    1.02    1.43    49.15037     6.89341    55.63832
   992  N   5.0   -0.15    3.59    2.15    46.90155     9.48734    40.17702
   993  C   4.0    0.15    3.53    3.13    47.42522    11.46487    36.12734
   994  O   6.0   -0.31    1.31    1.80    47.42196    13.75138    35.67523
   995  H   1.0    0.11    1.14    1.45    48.34869    10.59758    40.50372
   996  H   1.0    0.07    1.11    1.44    44.72626     8.78810    37.16206
   997  C   4.0    0.04    4.55    4.61    45.62774    10.31479    38.04275
   998  C   4.0   -0.03    4.43    4.43    43.74985    12.33059    39.12571
   999  C   4.0   -0.01    3.64    3.19    41.28548    11.66960    37.84827
  1000  C   4.0   -0.03    3.41    3.08    40.78563    12.87905    35.54204
  1001  C   4.0   -0.04    3.34    3.06    39.68201     9.98456    39.17827
[...]
  1169  N   3.500    C 1152 1.286    C 1170 0.989    C 1175 0.936    O 1153 0.200
  1170  C   3.969    N 1169 0.989    C 1173 0.959    C 1171 0.946    H 1176 0.944    O 1172 0.051
  1171  C   3.943    O 1172 1.639    N 1183 1.274    C 1170 0.946
  1172  O   1.987    C 1171 1.639    N 1183 0.191    C 1170 0.051
  1173  C   3.979    C 1174 0.995    H 1177 0.976    H 1178 0.975    C 1170 0.959
  1174  C   3.981    C 1175 1.017    C 1173 0.995    H 1179 0.972    H 1180 0.965
  1175  C   3.941    C 1174 1.017    H 1182 0.960    H 1181 0.956    N 1169 0.936
  1176  H   0.995    C 1170 0.944
  1177  H   0.993    C 1173 0.976
  1178  H   0.993    C 1173 0.975
  1179  H   0.992    C 1174 0.972
  1180  H   0.988    C 1174 0.965
  1181  H   0.992    C 1175 0.956
  1182  H   0.990    C 1175 0.960
  1183  N   3.453    C 1171 1.274    C 1184 0.993    H 1187 0.927    O 1172 0.191
  1184  C   3.963    N 1183 0.993    H 1189 0.959    C 1185 0.958    H 1188 0.949
  1185  C   3.954    O 1186 1.625    N 1190 1.304    C 1184 0.958
  1186  O   1.939    C 1185 1.625    N 1190 0.196
  1187  H   0.952    N 1183 0.927
  1188  H   0.990    C 1184 0.949
  1189  H   0.994    C 1184 0.959
  1190  N   3.477    C 1185 1.304    C 1191 0.982    H 1198 0.915    O 1186 0.196
  1191  C   3.964    C 1192 0.993    N 1190 0.982    C 1194 0.975    H 1199 0.908    O 1193 0.063
  1192  C   3.914    O 1193 1.895    C 1191 0.993    H 1502 0.952
  1193  O   2.045    C 1192 1.895    C 1191 0.063
  1194  C   3.987    C 1191 0.975    C 1195 0.973    H 1201 0.955    H 1200 0.949    O 1196 0.053
  1195  C   3.954    O 1196 1.624    N 1197 1.329    C 1194 0.973
  1196  O   1.937    C 1195 1.624    N 1197 0.199    C 1194 0.053
  1197  N   3.418    C 1195 1.329    H 1202 0.922    H 1203 0.905    O 1196 0.199
  1198  H   0.946    N 1190 0.915
  1199  H   0.986    C 1191 0.908
  1200  H   0.985    C 1194 0.949
  1201  H   0.994    C 1194 0.955
  1202  H   0.955    N 1197 0.922
  1203  H   0.938    N 1197 0.905
  1204  N   2.979    C 1205 1.029    H 1503 0.959    H 1208 0.946
  1205  C   3.991    N 1204 1.029    C 1206 0.970    H 1210 0.960    H 1209 0.938    O 1207 0.052
  1206  C   3.948    O 1207 1.645    N 1211 1.272    C 1205 0.970
  1207  O   1.954    C 1206 1.645    N 1211 0.190    C 1205 0.052
  1208  H   0.967    N 1204 0.946
  1209  H   0.994    C 1205 0.938
  1210  H   0.999    C 1205 0.960
  1211  N   3.447    C 1206 1.272    C 1212 0.985    H 1218 0.907    O 1207 0.190
  1212  C   3.970    N 1211 0.985    C 1215 0.955    H 1219 0.953    C 1213 0.932    O 1214 0.055
  1213  C   3.939    O 1214 1.666    N 1225 1.259    C 1212 0.932
  1214  O   1.994    C 1213 1.666    N 1225 0.192    C 1212 0.055
  1215  C   3.965    O 1216 1.003    C 1217 0.998    H 1220 0.958    C 1212 0.955
  1216  O   1.955    C 1215 1.003    H 1221 0.868
  1217  C   3.989    C 1215 0.998    H 1223 0.983    H 1222 0.981    H 1224 0.974
  1218  H   0.955    N 1211 0.907
  1219  H   0.992    C 1212 0.953
  1220  H   0.996    C 1215 0.958
  1221  H   0.883    O 1216 0.868
  1222  H   0.995    C 1217 0.981
  1223  H   0.998    C 1217 0.983
  1224  H   0.994    C 1217 0.974
  1225  N   3.446    C 1213 1.259    C 1226 0.989    H 1231 0.922    O 1214 0.192
  1226  C   3.974    C 1229 1.002    N 1225 0.989    H 1232 0.954    C 1227 0.904    O 1228 0.054
  1227  C   3.951    O 1228 1.602    N 1236 1.358    C 1226 0.904
  1228  O   1.926    C 1227 1.602    N 1236 0.205    C 1226 0.054
  1229  C   3.975    C 1226 1.002    H 1233 0.973    H 1234 0.969    S 1230 0.965
  1230  S   1.908    C 1229 0.965    H 1235 0.891
  1231  H   0.948    N 1225 0.922
  1232  H   0.996    C 1226 0.954
  1233  H   0.995    C 1229 0.973
  1234  H   0.997    C 1229 0.969
  1235  H   0.919    S 1230 0.891
  1236  N   3.515    C 1227 1.358    C 1237 0.974    H 1248 0.897    O 1228 0.205
  1237  C   3.962    N 1236 0.974    H 1249 0.957    C 1240 0.949    C 1238 0.947
  1238  C   3.949    O 1239 1.573    N 1257 1.345    C 1237 0.947
  1239  O   1.923    C 1238 1.573    N 1257 0.197
  1240  C   3.988    C 1241 1.018    H 1251 0.967    H 1250 0.963    C 1237 0.949
  1241  C   3.987    C 1243 1.410    C 1242 1.395    C 1240 1.018    C 1246 0.094
  1242  C   3.991    C 1244 1.461    C 1241 1.395    H 1252 0.971    C 1245 0.104
  1243  C   3.990    C 1245 1.452    C 1241 1.410    H 1253 0.965    C 1244 0.105
  1244  C   3.989    C 1242 1.461    C 1246 1.355    H 1254 0.965    C 1243 0.105
  1245  C   3.987    C 1243 1.452    C 1246 1.366    H 1255 0.962    C 1242 0.104    O 1247 0.063
  1246  C   3.941    C 1245 1.366    C 1244 1.355    O 1247 1.085    C 1241 0.094
  1247  O   2.129    C 1246 1.085    H 1256 0.868    C 1245 0.063
  1248  H   0.946    N 1236 0.897
  1249  H   0.993    C 1237 0.957
  1250  H   0.994    C 1240 0.963
  1251  H   0.996    C 1240 0.967
  1252  H   0.999    C 1242 0.971
  1253  H   0.997    C 1243 0.965
  1254  H   0.996    C 1244 0.965
  1255  H   0.998    C 1245 0.962
  1256  H   0.902    O 1247 0.868
  1257  N   3.502    C 1238 1.345    C 1258 0.972    H 1269 0.905    O 1239 0.197
  1258  C   3.957    N 1257 0.972    C 1261 0.960    H 1270 0.954    C 1259 0.924    O 1260 0.054
  1259  C   3.953    O 1260 1.660    N 1278 1.294    C 1258 0.924
  1260  O   1.990    C 1259 1.660    N 1278 0.202    C 1258 0.054
  1261  C   3.982    C 1262 1.006    H 1271 0.969    H 1272 0.963    C 1258 0.960
  1262  C   3.987    C 1263 1.448    C 1264 1.368    C 1261 1.006    C 1267 0.097
  1263  C   3.993    C 1262 1.448    C 1265 1.412    H 1273 0.966    C 1266 0.105
  1264  C   3.991    C 1266 1.497    C 1262 1.368    H 1274 0.971    C 1265 0.104
  1265  C   3.991    C 1267 1.416    C 1263 1.412    H 1275 0.968    C 1264 0.104    O 1268 0.052
  1266  C   3.984    C 1264 1.497    C 1267 1.327    H 1276 0.961    C 1263 0.105    O 1268 0.055
  1267  C   3.943    C 1265 1.416    C 1266 1.327    O 1268 1.066    C 1262 0.097
  1268  O   2.093    C 1267 1.066    H 1277 0.863    C 1266 0.055    C 1265 0.052
  1269  H   0.948    N 1257 0.905
  1270  H   0.996    C 1258 0.954
  1271  H   0.996    C 1261 0.969
  1272  H   0.995    C 1261 0.963
  1273  H   0.999    C 1263 0.966
  1274  H   0.998    C 1264 0.971
  1275  H   0.997    C 1265 0.968
  1276  H   0.994    C 1266 0.961
  1277  H   0.886    O 1268 0.863
  1278  N   3.459    C 1259 1.294    C 1279 0.974    H 1287 0.900    O 1260 0.202
  1279  C   3.964    N 1278 0.974    C 1282 0.973    C 1280 0.948    H 1288 0.937
  1280  C   3.924    O 1281 1.651    O 1286 1.266    C 1279 0.948
  1281  O   1.956    C 1280 1.651    O 1286 0.186
  1282  C   3.985    C 1283 0.979    C 1279 0.973    H 1289 0.971    H 1290 0.969
  1283  C   3.995    C 1284 1.017    C 1285 1.011    C 1282 0.979    H 1291 0.967
  1284  C   3.995    C 1283 1.017    H 1293 0.982    H 1294 0.981    H 1292 0.981
  1285  C   3.995    C 1283 1.011    H 1296 0.985    H 1297 0.981    H 1295 0.975
  1286  O   2.261    C 1280 1.266    H 1298 0.743    O 1281 0.186
  1287  H   0.949    N 1278 0.900
  1288  H   0.993    C 1279 0.937
  1289  H   0.997    C 1282 0.971
  1290  H   0.996    C 1282 0.969
  1291  H   0.999    C 1283 0.967
  1292  H   0.998    C 1284 0.981
  1293  H   0.999    C 1284 0.982
  1294  H   0.998    C 1284 0.981
  1295  H   0.998    C 1285 0.975
  1296  H   0.998    C 1285 0.985
  1297  H   0.999    C 1285 0.981
  1298  H   0.844    O 1286 0.743    O 1349 0.070
  1299  N   2.999    C 1300 1.020    H 1474 0.948    H 1307 0.946
  1300  C   3.984    N 1299 1.020    H 1308 0.964    C 1301 0.954    C 1303 0.939
  1301  C   3.948    O 1302 1.620    N 1318 1.275    C 1300 0.954
  1302  O   1.960    C 1301 1.620    N 1318 0.192
  1303  C   3.993    C 1305 1.006    C 1304 1.001    H 1309 0.969    C 1300 0.939
  1304  C   3.997    C 1306 1.016    C 1303 1.001    H 1310 0.977    H 1311 0.972
  1305  C   3.990    C 1303 1.006    H 1312 0.981    H 1314 0.980    H 1313 0.975
  1306  C   3.992    C 1304 1.016    H 1316 0.986    H 1317 0.984    H 1315 0.981
  1307  H   0.973    N 1299 0.946
  1308  H   0.997    C 1300 0.964
  1309  H   0.998    C 1303 0.969
  1310  H   0.998    C 1304 0.977
  1311  H   0.999    C 1304 0.972
  1312  H   0.999    C 1305 0.981
  1313  H   0.998    C 1305 0.975
  1314  H   0.996    C 1305 0.980
  1315  H   0.996    C 1306 0.981
  1316  H   0.998    C 1306 0.986
  1317  H   0.998    C 1306 0.984
  1318  N   3.495    C 1301 1.275    C 1319 0.989    C 1324 0.947    O 1302 0.192
  1319  C   3.970    N 1318 0.989    C 1320 0.984    C 1322 0.946    H 1325 0.939    O 1321 0.062
  1320  C   3.902    O 1321 1.899    C 1319 0.984    H 1475 0.951
  1321  O   2.047    C 1320 1.899    C 1319 0.062
  1322  C   3.980    C 1323 0.996    H 1326 0.977    H 1327 0.975    C 1319 0.946
  1323  C   3.987    C 1324 1.017    C 1322 0.996    H 1328 0.978    H 1329 0.969
  1324  C   3.956    C 1323 1.017    H 1331 0.963    H 1330 0.959    N 1318 0.947
  1325  H   0.992    C 1319 0.939
  1326  H   0.993    C 1322 0.977
  1327  H   0.993    C 1322 0.975
  1328  H   0.994    C 1323 0.978
  1329  H   0.992    C 1323 0.969
  1330  H   0.995    C 1324 0.959
  1331  H   0.993    C 1324 0.963
  1332  N   3.048    C 1333 1.010    C 1338 0.991    H 1476 0.955
  1333  C   3.987    N 1332 1.010    C 1334 0.985    C 1336 0.963    H 1339 0.940    O 1335 0.059
  1334  C   3.890    O 1335 1.874    C 1333 0.985    H 1477 0.954
  1335  O   2.021    C 1334 1.874    C 1333 0.059
  1336  C   3.994    C 1337 1.008    H 1340 0.976    H 1341 0.974    C 1333 0.963
  1337  C   3.995    C 1338 1.009    C 1336 1.008    H 1342 0.977    H 1343 0.972
  1338  C   3.985    C 1337 1.009    N 1332 0.991    H 1345 0.978    H 1344 0.966
  1339  H   0.993    C 1333 0.940
  1340  H   0.997    C 1336 0.976
  1341  H   0.996    C 1336 0.974
  1342  H   0.998    C 1337 0.977
  1343  H   0.998    C 1337 0.972
  1344  H   0.998    C 1338 0.966
  1345  H   0.998    C 1338 0.978
  1346  N   3.000    C 1347 1.023    H 1354 0.953    H 1478 0.947
  1347  C   3.989    N 1346 1.023    C 1350 0.976    C 1348 0.963    H 1355 0.939
  1348  C   3.943    O 1349 1.578    N 1360 1.297    C 1347 0.963
  1349  O   1.968    C 1348 1.578    N 1360 0.185    H 1298 0.070
  1350  C   3.995    C 1347 0.976    C 1351 0.971    H 1357 0.961    H 1356 0.958    O 1352 0.054
  1351  C   3.940    O 1352 1.628    N 1353 1.316    C 1350 0.971
  1352  O   1.929    C 1351 1.628    N 1353 0.195    C 1350 0.054
  1353  N   3.405    C 1351 1.316    H 1358 0.935    H 1359 0.917    O 1352 0.195
  1354  H   0.972    N 1346 0.953
  1355  H   0.995    C 1347 0.939
  1356  H   0.994    C 1350 0.958
  1357  H   0.994    C 1350 0.961
  1358  H   0.951    N 1353 0.935
  1359  H   0.950    N 1353 0.917
  1360  N   3.499    C 1348 1.297    C 1361 0.975    C 1366 0.949    O 1349 0.185
  1361  C   3.964    C 1362 0.984    N 1360 0.975    C 1364 0.962    H 1367 0.931    O 1363 0.061
  1362  C   3.901    O 1363 1.887    C 1361 0.984    H 1479 0.955
  1363  O   2.029    C 1362 1.887    C 1361 0.061
  1364  C   3.981    C 1365 1.006    H 1369 0.971    H 1368 0.970    C 1361 0.962
  1365  C   3.988    C 1366 1.011    C 1364 1.006    H 1370 0.976    H 1371 0.967
  1366  C   3.956    C 1365 1.011    H 1373 0.967    H 1372 0.962    N 1360 0.949
  1367  H   0.987    C 1361 0.931
  1368  H   0.992    C 1364 0.970
  1369  H   0.993    C 1364 0.971
  1370  H   0.996    C 1365 0.976
  1371  H   0.991    C 1365 0.967
  1372  H   0.996    C 1366 0.962
  1373  H   0.993    C 1366 0.967
  1374  N   2.981    C 1375 1.030    H 1480 0.955    H 1378 0.926
  1375  C   3.989    N 1374 1.030    C 1376 0.970    H 1380 0.959    H 1379 0.936    O 1377 0.052
  1376  C   3.939    O 1377 1.615    N 1381 1.279    C 1375 0.970
  1377  O   1.967    C 1376 1.615    N 1381 0.182    C 1375 0.052
  1378  H   0.966    N 1374 0.926
  1379  H   0.993    C 1375 0.936
  1380  H   0.996    C 1375 0.959
  1381  N   3.450    C 1376 1.279    C 1382 0.989    H 1388 0.899    O 1377 0.182
  1382  C   3.977    N 1381 0.989    C 1385 0.957    H 1389 0.954    C 1383 0.933    O 1384 0.054
  1383  C   3.945    O 1384 1.666    N 1395 1.262    C 1382 0.933
  1384  O   1.987    C 1383 1.666    N 1395 0.193    C 1382 0.054
  1385  C   3.969    O 1386 1.006    C 1387 0.997    H 1390 0.957    C 1382 0.957
  1386  O   1.951    C 1385 1.006    H 1391 0.845
  1387  C   3.993    C 1385 0.997    H 1393 0.983    H 1392 0.981    H 1394 0.976
  1388  H   0.947    N 1381 0.899
  1389  H   0.995    C 1382 0.954
  1390  H   0.995    C 1385 0.957
  1391  H   0.886    O 1386 0.845
  1392  H   0.999    C 1387 0.981
  1393  H   0.999    C 1387 0.983
  1394  H   0.996    C 1387 0.976
  1395  N   3.454    C 1383 1.262    C 1396 0.990    H 1401 0.916    O 1384 0.193
  1396  C   3.972    C 1399 1.001    N 1395 0.990    H 1402 0.953    C 1397 0.908    O 1398 0.050
  1397  C   3.950    O 1398 1.573    N 1406 1.374    C 1396 0.908
  1398  O   1.934    C 1397 1.573    N 1406 0.199    C 1396 0.050
  1399  C   3.975    C 1396 1.001    H 1404 0.975    H 1403 0.971    S 1400 0.967
  1400  S   1.965    C 1399 0.967    H 1405 0.933
  1401  H   0.955    N 1395 0.916
  1402  H   0.993    C 1396 0.953
  1403  H   0.998    C 1399 0.971
  1404  H   0.997    C 1399 0.975
  1405  H   0.954    S 1400 0.933
  1406  N   3.524    C 1397 1.374    C 1407 0.967    H 1418 0.913    O 1398 0.199
  1407  C   3.954    N 1406 0.967    H 1419 0.958    C 1410 0.947    C 1408 0.945
  1408  C   3.955    O 1409 1.609    N 1427 1.326    C 1407 0.945
  1409  O   1.923    C 1408 1.609    N 1427 0.202
  1410  C   3.982    C 1411 1.017    H 1421 0.966    H 1420 0.963    C 1407 0.947
  1411  C   3.987    C 1413 1.410    C 1412 1.396    C 1410 1.017    C 1416 0.094
  1412  C   3.989    C 1414 1.461    C 1411 1.396    H 1422 0.970    C 1415 0.104
  1413  C   3.992    C 1415 1.452    C 1411 1.410    H 1423 0.967    C 1414 0.106
  1414  C   3.986    C 1412 1.461    C 1416 1.355    H 1424 0.965    C 1413 0.106
  1415  C   3.989    C 1413 1.452    C 1416 1.368    H 1425 0.963    C 1412 0.104    O 1417 0.062
  1416  C   3.939    C 1415 1.368    C 1414 1.355    O 1417 1.081    C 1411 0.094
  1417  O   2.128    C 1416 1.081    H 1426 0.872    C 1415 0.062
  1418  H   0.944    N 1406 0.913
  1419  H   0.994    C 1407 0.958
  1420  H   0.994    C 1410 0.963
  1421  H   0.993    C 1410 0.966
  1422  H   0.996    C 1412 0.970
  1423  H   0.998    C 1413 0.967
  1424  H   0.994    C 1414 0.965
  1425  H   0.999    C 1415 0.963
  1426  H   0.907    O 1417 0.872
  1427  N   3.494    C 1408 1.326    C 1428 0.971    H 1439 0.907    O 1409 0.202
  1428  C   3.959    N 1427 0.971    C 1429 0.959    H 1440 0.958    C 1431 0.951    O 1430 0.058
  1429  C   3.903    O 1430 1.930    C 1428 0.959    H 1481 0.949
  1430  O   2.077    C 1429 1.930    C 1428 0.058
  1431  C   3.981    C 1432 1.005    H 1441 0.967    H 1442 0.961    C 1428 0.951
  1432  C   3.987    C 1433 1.450    C 1434 1.367    C 1431 1.005    C 1437 0.097
  1433  C   3.993    C 1432 1.450    C 1435 1.410    H 1443 0.970    C 1436 0.107
  1434  C   3.992    C 1436 1.501    C 1432 1.367    H 1444 0.970    C 1435 0.103
  1435  C   3.989    C 1437 1.419    C 1433 1.410    H 1445 0.968    C 1434 0.103    O 1438 0.052
  1436  C   3.987    C 1434 1.501    C 1437 1.329    H 1446 0.967    C 1433 0.107    O 1438 0.052
  1437  C   3.943    C 1435 1.419    C 1436 1.329    O 1438 1.062    C 1432 0.097
  1438  O   2.072    C 1437 1.062    H 1447 0.855    C 1436 0.052    C 1435 0.052
  1439  H   0.950    N 1427 0.907
  1440  H   0.993    C 1428 0.958
  1441  H   0.997    C 1431 0.967
  1442  H   0.994    C 1431 0.961
  1443  H   0.998    C 1433 0.970
  1444  H   0.999    C 1434 0.970
  1445  H   0.995    C 1435 0.968
  1446  H   0.996    C 1436 0.967
  1447  H   0.871    O 1438 0.855
  1448  N   2.985    C 1449 1.018    H 1455 0.951    H 1482 0.946
  1449  C   3.990    N 1448 1.018    H 1456 0.958    C 1452 0.956    C 1450 0.940    O 1451 0.053
  1450  C   3.939    O 1451 1.683    N 1462 1.244    C 1449 0.940
  1451  O   1.987    C 1450 1.683    N 1462 0.189    C 1449 0.053
  1452  C   3.964    C 1454 0.997    O 1453 0.997    H 1457 0.962    C 1449 0.956
  1453  O   1.950    C 1452 0.997    H 1458 0.853
  1454  C   3.994    C 1452 0.997    H 1460 0.984    H 1461 0.984    H 1459 0.982
  1455  H   0.967    N 1448 0.951
  1456  H   0.999    C 1449 0.958
  1457  H   0.997    C 1452 0.962
  1458  H   0.894    O 1453 0.853
  1459  H   1.000    C 1454 0.982
  1460  H   0.999    C 1454 0.984
  1461  H   0.995    C 1454 0.984
  1462  N   3.435    C 1450 1.244    C 1463 0.984    H 1468 0.921    O 1451 0.189
  1463  C   3.973    C 1466 0.992    N 1462 0.984    H 1469 0.953    C 1464 0.948    O 1465 0.052
  1464  C   3.773    O 1465 1.788    H 1483 0.953    C 1463 0.948
  1465  O   1.958    C 1464 1.788    C 1463 0.052
  1466  C   3.976    C 1463 0.992    H 1471 0.968    H 1470 0.963    S 1467 0.952
  1467  S   2.297    S 1032 1.215    C 1466 0.952
  1468  H   0.959    N 1462 0.921
  1469  H   0.992    C 1463 0.953
  1470  H   0.998    C 1466 0.963
  1471  H   0.997    C 1466 0.968
  1472  H   0.990    C  355 0.951
  1473  H   0.970    N  360 0.956
  1474  H   0.968    N 1299 0.948
  1475  H   0.994    C 1320 0.951
  1476  H   0.968    N 1332 0.955
  1477  H   0.993    C 1334 0.954
  1478  H   0.963    N 1346 0.947
  1479  H   0.994    C 1362 0.955
  1480  H   0.966    N 1374 0.955
  1481  H   0.992    C 1429 0.949
  1482  H   0.961    N 1448 0.946
  1483  H   0.991    C 1464 0.953
  1484  H   0.987    C  782 0.950
  1485  H   0.969    N  794 0.955
  1486  H   0.996    C  796 0.955
  1487  H   0.966    N  809 0.951
  1488  H   0.989    C  879 0.950
  1489  H   0.963    N  888 0.948
  1490  H   0.995    C  890 0.957
  1491  H   0.966    N  902 0.956
  1492  H   0.992    C  921 0.950
  1493  H   0.962    N  939 0.948
  1494  H   0.995    C  960 0.957
  1495  H   0.967    N  972 0.954
  1496  H   0.991    C 1049 0.949
  1497  H   0.965    N 1061 0.947
  1498  H   0.993    C 1063 0.949
  1499  H   0.969    N 1080 0.951
  1500  H   0.994    C 1082 0.955
  1501  H   0.970    N 1099 0.953
  1502  H   0.993    C 1192 0.952
  1503  H   0.971    N 1204 0.959
 
molecular dipole:
                 x           y           z       tot (Debye)
 q only:     -123.973     -83.350    -118.087
   full:     -127.668     -75.369    -120.989     486.394
molecular quadrupole (traceless):
                xx          xy          yy          xz          yz          zz
 q only:     -553.029   -3541.684     153.182   -3464.005   -2879.101     399.848
  q+dip:     -871.649   -3302.736     717.792   -3829.857   -2554.902     153.857
   full:     -865.609   -3307.895     702.104   -3827.552   -2556.574     163.504
speedup  7.41
cpu  time for grad   20 m 45.8 s
wall time for grad    2 m 48.2 s

SCC energy    :   -2438.0516148
rep           :      30.9197938
ES            :       8.4673010
AES           :      -0.4559032
AXC           :       0.5057712
disp          :      -2.3309513
XB            :       0.0000000
fix           :       0.0000000
Gborn         :       0.0000000
Gsasa         :       0.0000000
Ghb           :       0.0000000
Gshift        :       0.0000000
Gsolv         :      -2.0619115    -1293.87
Etot ala COSMO:   -2438.0516148
grad norm     :       1.6868408
total E       :   -2406.7902086
atomizationE  :     417.6022744   262049.38
(atE without considering molecular charge,
 total energy contains solvation terms)
H-L gap (eV)  :          0.2356

------------------------------------------------------------------------
 * finished run on 2019/02/22 at 14:29:09.798     
------------------------------------------------------------------------
 total:
 * wall-time:     0 d,  0 h,  2 min, 54.306 sec
 *  cpu-time:     0 d,  0 h, 21 min,  0.166 sec
 * ratio c/w:     7.230 speedup
 SCF:
 * wall-time:     0 d,  0 h,  2 min, 51.178 sec
 *  cpu-time:     0 d,  0 h, 20 min, 55.277 sec
 * ratio c/w:     7.333 speedup

