      -----------------------------------------------------------      
     |                   =====================                   |     
     |                           x T B                           |     
     |                   =====================                   |     
     |                         S. Grimme                         |     
     |          Mulliken Center for Theoretical Chemistry        |     
     |                    University of Bonn                     |     
     |                 Version 6.0.1 (SAW181210)                 |     
      -----------------------------------------------------------      

   This program is distributed in the hope that it will be useful,
   but WITHOUT ANY WARRANTY; without even the implied warranty of
   MERCHANTABILITY or FITNESS FOR A PARTICULAR PURPOSE.
   
   FOR NON-COMMERCIAL, ACADEMIA USE ONLY.
   
   Cite this work as:
   S. Grimme, C. Bannwarth, P. Shushkov, J. Comput. Theory Chem., 2017,
   13, 1989-2009.
   C. Bannwarth, S. Ehlert and S. Grimme., ChemRxiv, 2018, preprint.
   http://doi.org/10.26434/chemrxiv.7246238.v1
   
   for sTDA-xTB:
   S. Grimme and C. Bannwarth, J. Chem. Phys., 2016, 145, 054103.
   
   in the mass-spec context:
   V. Asgeirsson, C. Bauer and S. Grimme, Chem. Sci., 2017, 8, 4879.
   
   if GBSA is used:
   P. Shushkov, F. März and S. Grimme, unpublished.
   
   for ANC optimizer:
   S. Grimme, unpublished.
   Rational Function algorithm used in ANCopt:
   F. Eckert, P. Pulay, H.-J. Werner, J. Comput. Chem., 1997, 18, 1473.
   
   with help from (in alphabetical order)
   C. Bannwarth, F. Bohle, G. Brandenburg, E. Caldeweyher, M. Checinski,
   S. Dohm, S. Ehlert, S. Ehrlich, F. März, H. Neugebauer, J. Pisarek,
   P. Pracht, P. Shushkov, and S. Spicher.
   
 * started run on 2019/02/22 at 14:20:28.873     
========================================================================
 # omp threads = 12
========================================================================
number of atoms            : 1952
number of electrons        : 5442
charge                     : -7
spin                       : .0
first test random number   : .1571

########################################################################
# WARNING! Please study the warnings concerning your input carefully
#  - Process number higher than OMP_NUM_THREADS, I hope you know what you are doing.
########################################################################

           ------------------------------------------------- 
          |                 G F N 2 - x T B                 |
          | Geometry, Frequencies, Noncovalent interactions |
          |            JCTC 2018 parametrisation            |
           ------------------------------------------------- 
 
      method parameters     
 k(s)        :  1.8500
 k(p)        :  2.2300
 k(d)        :  2.2300
 k(f)        :  2.0000
 kEN (H0ij)  : -2.0000
 D4 a1       :  0.5200
 D4 a2       :  5.0000
 D4 s6       :  1.0000
 D4 s8       :  2.7000
 D4 s9       :  5.0000
 alphaj      :  2.0000

 Solvent             : h2o
 Using internal parameter file: .param_gbsa2_h2o
 Gsolv ref. state (COSMO-RS): gsolv [1 M gas/solution]
 temperature (mdtemp)       :    298.150000000000     
 dielectric constant        :    80.2000000000000     
 rho                        :    1.00000000000000     
 mass                       :    18.0000000000000     
 surface tension            :    15.5689454083859     
 probe radius               :   0.975313790000000     
 vdW radii scaling          :    1.00000000000000     
 Gshift (Eh)                :   1.857443126794793E-003
 c1                         :    1.55243817000000     
 soset                      :   0.130326360000000     
 HB correction              :  T

            Z     q(EN)     CN     RAES       Cart. coordinates
     1  N   5.0   -0.12    4.13    3.25    11.47178     3.52091    37.48414
     2  C   4.0   -0.01    4.27    4.14    11.00484     3.72758    34.83495
     3  C   4.0    0.15    3.38    3.07    13.04804     5.29802    33.57672
     4  O   6.0   -0.31    1.28    1.80    15.07666     5.61269    34.64450
     5  H   1.0    0.09    1.06    1.44    12.81598     4.68333    38.09991
     6  H   1.0    0.06    1.06    1.44     9.92091     3.88160    38.43689
     7  H   1.0    0.07    1.04    1.43    11.93448     1.70653    37.92160
     8  H   1.0    0.06    1.05    1.44    10.77214     1.91725    34.09061
     9  H   1.0    0.05    1.05    1.44     9.25925     4.68402    34.57554
    10  N   5.0   -0.15    3.50    2.08    12.41196     6.21875    31.37384
    11  C   4.0    0.05    4.51    4.55    14.13148     7.96147    30.11089
    12  C   4.0    0.15    3.50    3.11    12.63125    10.30458    29.23533
    13  O   6.0   -0.30    1.25    1.80    10.35580    10.20079    28.80822
    14  C   4.0   -0.03    4.17    3.94    15.67027     6.73584    27.99978
    15  S   6.0   -0.03    2.47    3.10    13.91923     5.59004    25.27945
    16  H   1.0    0.11    1.13    1.45    10.76541     6.07592    30.67598
    17  H   1.0    0.07    1.08    1.44    15.40551     8.65851    31.57834
    18  H   1.0    0.06    1.09    1.44    17.02959     8.06818    27.26922
    19  H   1.0    0.05    1.10    1.44    16.48448     5.00948    28.69691
    20  N   5.0   -0.15    3.49    2.07    14.00502    12.41901    29.12619
    21  C   4.0    0.04    4.34    4.28    12.93197    14.86989    28.62833
    22  C   4.0    0.16    3.39    3.08    13.30757    15.67015    25.82441
    23  O   6.0   -0.32    1.29    1.80    15.15415    15.05745    24.60318
    24  C   4.0   -0.06    4.18    3.96    14.17271    16.83210    30.30683
    25  H   1.0    0.11    1.14    1.45    15.72980    12.23379    29.41958
    26  H   1.0    0.06    1.06    1.44    10.89630    14.71979    29.00437
    27  H   1.0    0.06    1.05    1.44    16.09451    16.73803    29.99429
    28  H   1.0    0.06    1.01    1.43    13.65252    16.58013    32.24963
    29  H   1.0    0.06    1.03    1.43    13.66652    18.65394    29.87204
    30  N   5.0   -0.14    3.50    2.08    11.52474    17.22339    24.95805
    31  C   4.0    0.03    4.44    4.44    11.53085    18.21747    22.38662
    32  C   4.0    0.15    3.41    3.08    12.49571    20.97681    22.39223
    33  O   6.0   -0.30    1.31    1.80    13.16590    22.06378    24.28319
    34  C   4.0   -0.03    4.36    4.32     8.92487    17.89218    21.22285
    35  C   4.0   -0.01    3.56    3.14     8.26123    15.19862    20.91556
    36  C   4.0   -0.04    3.44    3.09     9.36207    13.83247    18.96396
    37  C   4.0   -0.03    3.43    3.09     6.75655    13.89607    22.70847
    38  C   4.0   -0.04    3.32    3.06     8.82257    11.29559    18.60317
    39  C   4.0   -0.03    3.33    3.06     6.27162    11.30930    22.43640
    40  C   4.0   -0.04    3.35    3.06     7.19521    10.04478    20.30612
    41  H   1.0    0.10    1.10    1.44    10.18486    17.69909    26.05636
    42  H   1.0    0.05    1.08    1.44    12.90843    17.19258    21.31407
    43  H   1.0    0.06    1.06    1.44     7.67523    18.91015    22.39973
    44  H   1.0    0.05    1.04    1.43     8.87752    18.76477    19.36940
    45  H   1.0    0.05    1.00    1.43    10.53842    14.89141    17.55712
    46  H   1.0    0.06    1.03    1.43     6.02352    14.97218    24.26904
    47  H   1.0    0.04    1.00    1.43     9.75523    10.30532    16.99753
    48  H   1.0    0.05    1.03    1.43     5.02511    10.36989    23.74644
    49  H   1.0    0.05    1.02    1.43     6.75751     8.06224    20.08004
    50  N   5.0   -0.15    3.48    2.07    12.69240    22.12384    20.09970
    51  C   4.0    0.03    4.46    4.47    13.73490    24.66701    19.91909
    52  C   4.0    0.16    3.49    3.11    12.20729    26.49150    21.53450
    53  O   6.0   -0.32    1.26    1.80     9.89797    26.54634    21.47854
    54  C   4.0   -0.04    4.35    4.29    13.59630    25.48380    17.17369
    55  C   4.0   -0.03    4.23    4.06    14.88038    27.94682    16.68634
    56  C   4.0    0.24    3.14    3.03    14.80771    28.65384    13.90836
    57  O   6.0   -0.29    1.21    1.80    15.82252    30.66085    13.35486
    58  O   6.0   -0.29    1.23    1.80    13.98897    27.15438    12.30186
    59  H   1.0    0.09    1.12    1.45    12.20445    21.05476    18.72641
    60  H   1.0    0.05    1.08    1.44    15.66642    24.57682    20.47273
    61  H   1.0    0.04    1.01    1.43    14.48549    23.95257    16.00826
    62  H   1.0    0.05    1.06    1.44    11.62492    25.56138    16.77350
    63  H   1.0    0.05    1.04    1.43    13.90789    29.44135    17.71706
    64  H   1.0    0.05    1.02    1.43    16.86542    27.99455    17.29180
    65  N   5.0   -0.16    3.42    2.03    13.63199    28.15377    22.90368
    66  C   4.0    0.01    4.30    4.19    12.46375    30.02813    24.44719
    67  C   4.0    0.15    3.32    3.06    11.62093    29.13148    27.06161
    68  O   6.0   -0.31    1.22    1.80    10.76764    30.65025    28.61493
    69  H   1.0    0.11    1.12    1.45    15.45042    28.06417    22.90703
    70  H   1.0    0.04    1.05    1.44    13.75717    31.54076    24.69470
    71  H   1.0    0.05    1.06    1.44    10.80084    30.64893    23.49821
    72  N   5.0   -0.13    3.51    2.08    11.77937    26.65581    27.46476
    73  C   4.0    0.04    4.42    4.41    10.99514    25.47701    29.81989
    74  C   4.0    0.16    3.43    3.09    13.28476    25.18679    31.58229
    75  O   6.0   -0.30    1.27    1.80    15.40948    24.73845    30.79910
    76  C   4.0   -0.03    4.34    4.27     9.78858    22.89520    29.15044
    77  C   4.0   -0.02    4.25    4.09     9.06312    21.36012    31.46865
    78  C   4.0    0.24    3.15    3.03     7.59937    19.02137    30.73947
    79  O   6.0   -0.31    1.21    1.80     6.87809    18.60801    28.59038
    80  O   6.0   -0.28    1.19    1.80     7.07838    17.43486    32.53997
    81  H   1.0    0.11    1.13    1.45    12.49227    25.60919    26.16540
    82  H   1.0    0.06    1.07    1.44     9.51626    26.57400    30.67038
    83  H   1.0    0.07    1.06    1.44     8.08685    23.22380    28.19007
    84  H   1.0    0.07    1.07    1.44    11.06242    21.93380    28.01914
    85  H   1.0    0.06    1.06    1.44    10.67658    20.70883    32.42536
    86  H   1.0    0.08    1.05    1.44     7.90801    22.48455    32.68070
    87  N   5.0   -0.15    3.47    2.06    12.71748    25.32005    34.03043
    88  C   4.0    0.05    4.39    4.36    14.57063    24.84387    35.99423
    89  C   4.0    0.17    3.47    3.10    15.69360    22.23816    35.76521
    90  O   6.0   -0.31    1.27    1.80    14.29067    20.33965    35.44331
    91  C   4.0    0.05    4.14    3.89    13.31883    25.09013    38.71994
    92  O   6.0   -0.22    2.10    1.84    14.86334    24.31051    40.69133
    93  H   1.0    0.11    1.14    1.45    10.99941    25.62966    34.47053
    94  H   1.0    0.07    1.08    1.44    15.98187    26.24781    35.99022
    95  H   1.0    0.05    0.99    1.43    12.69937    27.10220    38.89237
    96  H   1.0    0.07    1.05    1.44    11.75075    23.91123    38.75690
    97  H   1.0    0.14    1.06    1.44    14.04793    24.55617    42.21993
    98  N   5.0   -0.13    3.57    2.13    18.12172    22.06049    36.10533
    99  C   4.0    0.05    4.53    4.58    19.54298    19.73073    36.16322
   100  C   4.0    0.15    3.46    3.10    20.97822    19.50980    38.64963
   101  O   6.0   -0.29    1.28    1.80    21.65335    21.41458    39.84641
   102  C   4.0   -0.02    4.19    3.98    21.17090    19.34377    33.89210
   103  S   6.0    0.00    2.61    3.10    23.12474    22.14798    33.21915
   104  H   1.0    0.12    1.15    1.45    19.12624    23.55098    36.36118
   105  H   1.0    0.06    1.09    1.44    18.14459    18.23441    36.29718
   106  H   1.0    0.05    1.08    1.44    22.44440    17.77039    34.08994
   107  H   1.0    0.05    1.11    1.45    20.18614    18.94440    32.15446
   108  N   5.0   -0.15    3.52    2.09    21.53117    17.18856    39.33783
   109  C   4.0    0.04    4.45    4.46    23.14705    16.61808    41.51089
   110  C   4.0    0.16    3.50    3.12    24.59287    14.25555    40.73584
   111  O   6.0   -0.30    1.32    1.80    23.41149    12.38989    39.88305
   112  C   4.0   -0.03    4.32    4.24    21.62686    16.30753    43.93760
   113  C   4.0    0.16    3.27    3.05    23.15881    15.06917    46.02156
   114  O   6.0   -0.32    1.31    1.80    23.72389    12.84235    45.85110
   115  N   5.0   -0.20    3.23    1.96    23.67042    16.45380    48.00877
   116  H   1.0    0.11    1.13    1.45    20.77732    15.79232    38.47772
   117  H   1.0    0.07    1.08    1.44    24.39663    18.20966    41.67576
   118  H   1.0    0.06    1.04    1.44    20.96242    18.12417    44.51093
   119  H   1.0    0.05    1.05    1.44    20.06858    15.09965    43.52313
   120  H   1.0    0.12    1.08    1.44    23.29761    18.26151    48.00725
   121  H   1.0    0.12    1.07    1.44    24.65123    15.74086    49.38279
   122  N   5.0   -0.15    3.46    2.05    27.06719    14.30038    40.93693
   123  C   4.0    0.04    4.50    4.54    28.55927    12.20909    39.79881
   124  C   4.0    0.16    3.39    3.08    28.21857     9.68241    41.25031
   125  O   6.0   -0.32    1.35    1.80    28.61836     7.71973    40.13578
   126  C   4.0   -0.02    4.30    4.20    31.38179    12.89154    39.63601
   127  C   4.0   -0.06    4.19    3.99    31.67931    15.02985    37.85294
   128  C   4.0   -0.07    4.17    3.94    32.52427    13.45765    42.19081
   129  H   1.0    0.10    1.10    1.44    27.92103    15.75814    41.65443
   130  H   1.0    0.06    1.07    1.44    27.93248    11.93661    37.87757
   131  H   1.0    0.05    1.07    1.44    32.33294    11.26714    38.80571
   132  H   1.0    0.06    1.03    1.43    32.61262    16.54995    38.81767
   133  H   1.0    0.06    1.01    1.43    29.96147    15.87278    37.15271
   134  H   1.0    0.07    1.01    1.43    32.87446    14.63856    36.28512
   135  H   1.0    0.05    1.02    1.43    31.70388    15.08859    43.00411
   136  H   1.0    0.05    1.01    1.43    34.48635    13.91065    41.79997
   137  H   1.0    0.05    1.02    1.43    32.51890    11.87505    43.38095
   138  N   5.0   -0.14    3.48    2.06    27.30192     9.67493    43.59243
   139  C   4.0    0.04    4.39    4.36    26.74038     7.33705    44.95552
   140  C   4.0    0.16    3.41    3.08    24.11874     6.24941    44.28023
   141  O   6.0   -0.31    1.27    1.80    23.80610     3.98575    44.12812
   142  C   4.0   -0.03    4.26    4.12    26.81480     7.86121    47.83986
   143  C   4.0   -0.03    4.18    3.95    26.22706     5.61864    49.56709
   144  C   4.0    0.16    3.21    3.04    28.24489     3.49614    49.40575
   145  O   6.0   -0.30    1.22    1.80    30.43558     3.98259    48.94954
   146  N   5.0   -0.20    3.21    1.96    27.46892     1.15333    49.75755
   147  H   1.0    0.11    1.11    1.45    26.87751    11.21648    44.49846
   148  H   1.0    0.06    1.05    1.44    28.18728     5.94321    44.45775
   149  H   1.0    0.06    1.04    1.43    28.66528     8.57760    48.29262
   150  H   1.0    0.06    1.03    1.43    25.50663     9.39373    48.27209
   151  H   1.0    0.04    1.02    1.43    26.16534     6.25010    51.54156
   152  H   1.0    0.06    1.03    1.43    24.39153     4.78334    49.12388
   153  H   1.0    0.12    1.07    1.44    25.74019     0.69679    50.14903
   154  H   1.0    0.11    1.05    1.44    28.66092    -0.21172    49.74461
   155  N   5.0   -0.14    3.49    2.07    22.25832     7.88852    44.08398
   156  C   4.0    0.04    4.42    4.42    19.58372     7.04551    44.03021
   157  C   4.0    0.14    3.40    3.08    18.26049     7.41127    41.50552
   158  O   6.0   -0.31    1.23    1.80    16.54905     5.99249    40.93121
   159  C   4.0   -0.03    4.33    4.25    18.13060     8.53910    46.10152
   160  C   4.0   -0.01    3.55    3.14    19.07124     8.03605    48.77511
   161  C   4.0   -0.04    3.49    3.11    18.71025     5.74090    49.84349
   162  C   4.0   -0.04    3.47    3.10    20.22612     9.97716    50.13623
   163  C   4.0   -0.04    3.40    3.08    19.49626     5.28872    52.30628
   164  C   4.0   -0.04    3.35    3.07    20.98360     9.56129    52.66166
   165  C   4.0   -0.04    3.39    3.08    20.58746     7.20969    53.68034
   166  H   1.0    0.11    1.11    1.45    22.53287     9.67712    44.12712
   167  H   1.0    0.07    1.08    1.44    19.53529     5.05364    44.40783
   168  H   1.0    0.04    1.03    1.43    18.23183    10.54656    45.63853
   169  H   1.0    0.05    1.05    1.44    16.22975     7.92066    45.84976
   170  H   1.0    0.05    1.05    1.44    17.71835     4.29887    48.86926
   171  H   1.0    0.06    1.04    1.43    20.55119    11.72238    49.23884
   172  H   1.0    0.06    1.04    1.43    19.24624     3.48601    53.15015
   173  H   1.0    0.06    1.02    1.43    21.82784    11.09734    53.71987
   174  H   1.0    0.06    1.02    1.43    21.17676     6.89341    55.63832
   175  N   5.0   -0.15    3.59    2.15    18.92794     9.48734    40.17702
   176  C   4.0    0.15    3.53    3.13    19.45160    11.46487    36.12734
   177  O   6.0   -0.31    1.31    1.80    19.44834    13.75138    35.67523
   178  H   1.0    0.11    1.14    1.45    20.37508    10.59758    40.50372
   179  H   1.0    0.07    1.11    1.44    16.75264     8.78810    37.16206
   180  C   4.0    0.04    4.55    4.61    17.65412    10.31479    38.04275
   181  C   4.0   -0.03    4.43    4.43    15.77624    12.33059    39.12571
   182  C   4.0   -0.01    3.64    3.19    13.31186    11.66960    37.84827
   183  C   4.0   -0.03    3.41    3.08    12.81202    12.87905    35.54204
   184  C   4.0   -0.04    3.34    3.06    11.70840     9.98456    39.17827
   185  C   4.0   -0.02    3.34    3.06    10.47819    12.56802    34.35771
   186  C   4.0   -0.04    3.48    3.11     9.38882     9.72840    37.93420
   187  C   4.0    0.07    3.41    3.08     8.64288    10.84153    35.60272
   188  O   6.0   -0.23    2.64    2.11     6.45105    10.33516    34.86754
   189  H   1.0    0.04    1.06    1.44    15.54845    12.12564    41.10017
   190  H   1.0    0.06    1.07    1.44    16.24384    14.14509    38.44941
   191  H   1.0    0.06    1.04    1.43    14.18136    14.16615    34.78620
   192  H   1.0    0.06    1.02    1.43    12.00443     9.01897    40.94599
   193  H   1.0    0.07    1.02    1.43    10.00656    13.48034    32.58965
   194  H   1.0    0.05    1.06    1.44     7.87435     8.52249    38.47826
   195  H   1.0    0.14    1.14    1.45     5.02624     9.07290    35.43199
   196  N   5.0   -0.08    3.69    2.25    21.06515     9.87040    35.00069
   197  C   4.0    0.03    4.55    4.61    22.79108    10.91923    33.02867
   198  C   4.0    0.16    3.48    3.11    21.24849    11.67963    30.75367
   199  O   6.0   -0.31    1.32    1.80    19.06136    10.95377    30.43611
   200  C   4.0   -0.04    4.33    4.25    24.49189     8.59432    32.40727
   201  C   4.0   -0.04    4.27    4.15    22.74582     6.34340    32.95101
   202  C   4.0   -0.01    4.36    4.31    21.29699     7.13078    35.30436
   203  H   1.0    0.06    1.05    1.44    23.74250    12.54930    33.79312
   204  H   1.0    0.05    1.04    1.43    25.05509     8.63380    30.47760
   205  H   1.0    0.05    1.03    1.43    26.09152     8.52924    33.63933
   206  H   1.0    0.05    1.01    1.43    21.38239     6.10791    31.35153
   207  H   1.0    0.04    1.05    1.44    23.76633     4.69540    33.24737
   208  H   1.0    0.06    1.06    1.44    19.57315     6.25128    35.36439
   209  H   1.0    0.06    1.03    1.43    22.28355     6.79165    37.04760
   210  N   5.0   -0.15    3.52    2.09    22.37910    13.24374    29.11808
   211  C   4.0    0.04    4.55    4.60    21.13712    13.81234    26.74452
   212  C   4.0    0.16    3.46    3.10    20.86887    11.38217    25.11368
   213  O   6.0   -0.30    1.27    1.80    22.57339     9.84682    25.00123
   214  C   4.0   -0.04    4.21    4.02    22.54635    15.80534    25.22557
   215  S   6.0   -0.03    2.47    3.10    23.00129    18.74223    26.99113
   216  H   1.0    0.10    1.13    1.45    24.05124    13.83328    29.44156
   217  H   1.0    0.06    1.10    1.44    19.33955    14.56930    27.17573
   218  H   1.0    0.05    1.11    1.45    24.35989    15.15586    24.85188
   219  H   1.0    0.05    1.07    1.44    21.46460    16.02237    23.51409
   220  N   5.0   -0.14    3.53    2.10    18.72040    11.19033    23.84444
   221  C   4.0    0.04    4.57    4.62    18.32919     9.04903    22.20123
   222  C   4.0    0.15    3.49    3.11    20.25797     9.12062    20.00120
   223  O   6.0   -0.29    1.24    1.80    20.73790    11.10306    18.93997
   224  C   4.0   -0.04    4.24    4.08    15.73502     9.07108    21.09831
   225  S   6.0    0.00    2.49    3.10    13.14430     8.81961    23.35633
   226  H   1.0    0.11    1.13    1.45    17.44678    12.47534    24.00840
   227  H   1.0    0.04    1.09    1.44    18.62706     7.32850    23.29934
   228  H   1.0    0.05    1.10    1.44    15.36236    10.84399    20.17607
   229  H   1.0    0.05    1.09    1.44    15.76438     7.61960    19.70009
   230  N   5.0   -0.09    3.64    2.20    21.23916     6.84215    19.28924
   231  C   4.0    0.04    4.55    4.61    23.24280     6.69617    17.35922
   232  C   4.0    0.15    3.40    3.08    22.24083     6.83679    14.65916
   233  O   6.0   -0.29    1.24    1.80    20.01016     6.37808    14.09978
   234  C   4.0   -0.04    4.37    4.32    24.50145     4.17624    17.97561
   235  C   4.0   -0.05    4.27    4.15    22.34478     2.52998    19.05963
   236  C   4.0   -0.02    4.41    4.39    20.87887     4.41086    20.59748
   237  H   1.0    0.07    1.07    1.44    24.51099     8.23939    17.73578
   238  H   1.0    0.05    1.03    1.43    25.39284     3.32700    16.38032
   239  H   1.0    0.04    1.03    1.43    26.00718     4.44411    19.31919
   240  H   1.0    0.04    1.03    1.43    21.13198     1.79734    17.59269
   241  H   1.0    0.03    1.03    1.43    23.01584     1.01098    20.19354
   242  H   1.0    0.04    1.05    1.44    18.94129     4.03827    20.61922
   243  H   1.0    0.04    1.05    1.44    21.70176     4.46815    22.41264
   244  N   5.0   -0.16    3.42    2.03    23.94393     7.38486    12.95543
   245  C   4.0    0.02    4.29    4.18    23.36009     7.39166    10.24886
   246  C   4.0    0.15    3.29    3.05    22.26550     9.85662     9.20711
   247  O   6.0   -0.31    1.21    1.80    21.51386     9.97545     7.05908
   248  H   1.0    0.10    1.13    1.45    25.67510     7.47140    13.34456
   249  H   1.0    0.05    1.04    1.43    25.01281     6.95165     9.20211
   250  H   1.0    0.06    1.06    1.44    21.97776     5.99849     9.89680
   251  N   5.0   -0.15    3.48    2.06    22.16532    11.79211    10.89158
   252  C   4.0    0.04    4.31    4.22    20.79407    14.10182    10.37190
   253  C   4.0    0.07    3.19    3.03    22.41636    16.49469    10.47349
   254  O   6.0   -0.29    1.14    1.80    21.45121    18.57838    10.29108
   255  C   4.0   -0.04    4.41    4.40    18.57612    14.32752    12.25515
   256  C   4.0   -0.02    4.22    4.03    16.57872    12.28265    12.13575
   257  C   4.0   -0.08    4.16    3.92    14.73840    12.62835    14.25469
   258  C   4.0   -0.07    4.14    3.87    15.24934    12.36692     9.55287
   259  H   1.0    0.10    1.13    1.45    22.81574    11.61964    12.56767
   260  H   1.0    0.06    1.07    1.44    20.02132    14.05993     8.48021
   261  H   1.0    0.04    1.05    1.44    19.19074    14.43594    14.15655
   262  H   1.0    0.06    1.05    1.44    17.69246    16.12859    11.96821
   263  H   1.0    0.07    1.06    1.44    17.41631    10.39852    12.33872
   264  H   1.0    0.04    1.02    1.43    13.94995    14.48214    14.02649
   265  H   1.0    0.05    1.01    1.43    15.69524    12.57328    16.03679
   266  H   1.0    0.04    1.01    1.43    13.38879    11.14560    14.35444
   267  H   1.0    0.05    1.00    1.43    14.44667    14.18841     9.17398
   268  H   1.0    0.04    1.01    1.43    13.89780    10.87931     9.43272
   269  H   1.0    0.05    1.01    1.43    16.59396    11.83326     8.13789
   270  N   5.0   -0.21    3.26    1.97    25.63316    18.45674    15.45394
   271  C   4.0    0.03    4.34    4.28    25.29777    19.77131    17.78802
   272  C   4.0    0.15    3.41    3.08    27.53160    19.47467    19.58983
   273  O   6.0   -0.31    1.25    1.80    28.58721    17.44369    19.98314
   274  C   4.0   -0.04    4.37    4.33    22.90656    18.71440    19.13087
   275  C   4.0   -0.02    4.20    4.01    20.44600    19.12607    17.62744
   276  C   4.0   -0.07    4.13    3.86    18.27865    17.80301    18.96695
   277  C   4.0   -0.07    4.13    3.87    19.92252    21.90361    17.09118
   278  H   1.0    0.10    1.09    1.44    25.11668    16.75645    15.46444
   279  H   1.0    0.05    1.09    1.44    25.25081    21.76637    17.42153
   280  H   1.0    0.06    1.04    1.43    23.14826    16.77777    19.55485
   281  H   1.0    0.04    1.04    1.43    22.63539    19.68691    20.89677
   282  H   1.0    0.05    1.09    1.44    20.69502    18.31090    15.81723
   283  H   1.0    0.04    1.02    1.43    16.56163    18.01539    17.98820
   284  H   1.0    0.05    1.01    1.43    17.94081    18.48322    20.84480
   285  H   1.0    0.06    1.01    1.43    18.56078    15.80691    19.14353
   286  H   1.0    0.04    1.02    1.43    18.20434    22.13219    16.08949
   287  H   1.0    0.05    1.02    1.43    21.37768    22.66899    15.94874
   288  H   1.0    0.05    1.01    1.43    19.75390    22.95255    18.79552
   289  N   5.0   -0.15    3.53    2.10    28.24265    21.61318    20.71936
   290  C   4.0    0.04    4.46    4.48    30.14227    21.73016    22.70412
   291  C   4.0    0.15    3.43    3.09    28.91246    22.83969    25.03459
   292  O   6.0   -0.31    1.28    1.80    27.25715    24.48264    24.90118
   293  C   4.0    0.05    4.25    4.09    32.39297    23.37044    21.70185
   294  O   6.0   -0.26    2.15    1.85    34.10530    23.41682    23.76250
   295  C   4.0   -0.07    4.13    3.86    31.68842    25.97082    20.81855
   296  H   1.0    0.11    1.12    1.45    27.43452    23.18721    20.24092
   297  H   1.0    0.06    1.08    1.44    30.63385    19.78743    23.02655
   298  H   1.0    0.04    1.05    1.44    33.25829    22.35120    20.16341
   299  H   1.0    0.12    1.05    1.44    35.40950    24.50710    23.35381
   300  H   1.0    0.05    1.02    1.43    30.81035    27.02179    22.29319
   301  H   1.0    0.06    1.02    1.43    30.43312    25.89890    19.28000
   302  H   1.0    0.03    1.04    1.43    33.31940    26.87666    20.26817
   303  N   5.0   -0.14    3.45    2.05    29.61970    21.85087    27.27113
   304  C   4.0    0.04    4.51    4.56    28.44462    22.64983    29.63180
   305  C   4.0    0.15    3.48    3.10    30.07249    24.77455    30.85216
   306  O   6.0   -0.30    1.26    1.80    32.10062    24.27732    31.82564
   307  C   4.0   -0.03    4.22    4.04    28.26700    20.42740    31.40775
   308  S   6.0   -0.01    2.41    3.10    26.70155    21.25179    34.39999
   309  H   1.0    0.10    1.09    1.44    31.09536    20.78592    27.43444
   310  H   1.0    0.06    1.10    1.44    26.65817    23.48509    29.28911
   311  H   1.0    0.05    1.07    1.44    27.18771    18.86803    30.58327
   312  H   1.0    0.07    1.10    1.44    30.09096    19.82556    31.89284
   313  N   5.0   -0.15    3.47    2.06    29.19294    27.14499    30.57104
   314  C   4.0    0.04    4.54    4.59    30.73320    29.26849    31.30778
   315  C   4.0    0.14    3.49    3.11    29.60367    30.60836    33.58531
   316  O   6.0   -0.31    1.28    1.80    27.42392    31.34636    33.51941
   317  C   4.0   -0.02    4.36    4.32    31.03645    31.23606    29.11004
   318  C   4.0   -0.05    4.24    4.08    32.17345    29.95626    26.82222
   319  C   4.0   -0.08    4.19    3.99    32.65367    33.44401    30.01808
   320  C   4.0   -0.09    4.09    3.78    32.51946    31.78352    24.64496
   321  H   1.0    0.11    1.10    1.44    27.51845    27.36555    29.94639
   322  H   1.0    0.06    1.11    1.45    32.51345    28.43928    31.63135
   323  H   1.0    0.06    1.07    1.44    29.18692    31.91231    28.62922
   324  H   1.0    0.04    1.04    1.43    33.92497    29.09693    27.34657
   325  H   1.0    0.06    1.04    1.43    30.91997    28.43771    26.29291
   326  H   1.0    0.05    1.04    1.43    31.70450    34.19078    31.60363
   327  H   1.0    0.03    1.02    1.43    32.84515    34.84881    28.63887
   328  H   1.0    0.03    1.01    1.43    34.50143    33.09332    30.65620
   329  H   1.0    0.03    1.04    1.43    33.84727    33.09746    25.18530
   330  H   1.0    0.04    1.02    1.43    30.86110    32.67318    24.09244
   331  H   1.0    0.03    1.01    1.43    33.28615    30.80450    23.03250
   332  N   5.0   -0.11    3.64    2.20    31.10113    31.00417    35.65125
   333  C   4.0    0.02    4.51    4.55    33.68074    30.17288    35.93777
   334  C   4.0    0.16    3.41    3.08    33.98582    27.39671    36.62018
   335  O   6.0   -0.30    1.25    1.80    35.98768    26.34102    36.28967
   336  C   4.0   -0.05    4.36    4.30    34.64627    31.88865    38.14351
   337  C   4.0   -0.04    4.23    4.07    32.23272    32.41370    39.76801
   338  C   4.0   -0.00    4.37    4.32    30.23924    32.68946    37.75812
   339  H   1.0    0.04    1.06    1.44    34.80731    30.56166    34.27406
   340  H   1.0    0.05    1.05    1.44    35.98149    30.95852    39.22994
   341  H   1.0    0.03    1.04    1.43    35.39822    33.58999    37.39995
   342  H   1.0    0.07    1.03    1.43    31.84662    30.78119    40.92168
   343  H   1.0    0.04    1.04    1.43    32.43584    34.07299    40.85827
   344  H   1.0    0.05    1.03    1.43    28.42019    32.04777    38.39405
   345  H   1.0    0.06    1.04    1.43    30.03146    34.52438    36.98025
   346  N   5.0   -0.14    3.43    2.03    31.98901    26.16839    37.61702
   347  C   4.0    0.03    4.31    4.22    32.15128    23.50208    38.19060
   348  C   4.0    0.16    3.35    3.07    33.85279    22.90484    40.41687
   349  O   6.0   -0.32    1.28    1.80    35.22056    20.96840    40.42308
   350  H   1.0    0.11    1.12    1.45    30.44061    26.90684    38.03345
   351  H   1.0    0.06    1.05    1.44    30.36143    22.66800    38.45055
   352  H   1.0    0.07    1.06    1.44    32.96890    22.66750    36.55683
   353  N   5.0   -0.14    3.50    2.08    33.70697    24.44455    42.41278
   354  C   4.0    0.05    4.46    4.48    35.42744    24.23491    44.51566
   355  C   4.0    0.15    3.46    3.10    34.25058    23.83396    47.09285
   356  O   6.0   -0.31    1.36    1.80    35.08812    24.95707    48.95473
   357  C   4.0   -0.02    4.34    4.27    37.29068    26.50509    44.59168
   358  C   4.0    0.16    3.25    3.04    35.92946    29.02977    44.75724
   359  O   6.0   -0.27    1.23    1.80    33.58378    29.21279    44.99572
   360  N   5.0   -0.21    3.21    1.96    37.43910    31.02042    44.47851
   361  H   1.0    0.12    1.10    1.44    32.55356    25.80823    42.49956
   362  H   1.0    0.05    1.10    1.44    36.45874    22.52297    44.23839
   363  H   1.0    0.05    1.04    1.43    38.52550    26.32269    46.17319
   364  H   1.0    0.04    1.05    1.44    38.25814    26.35225    42.83329
   365  H   1.0    0.08    1.07    1.44    39.19733    30.78761    44.44742
   366  H   1.0    0.10    1.05    1.44    36.80885    32.72092    44.52020
   367  N   5.0   -0.10    3.67    2.24    32.36898    22.10128    47.38674
   368  C   4.0    0.02    4.57    4.63    31.48750    20.23556    45.53286
   369  C   4.0    0.15    3.46    3.10    29.18331    21.11234    44.01020
   370  O   6.0   -0.31    1.25    1.80    28.38774    19.70751    42.28230
   371  C   4.0   -0.04    4.41    4.40    30.74887    17.99661    47.16997
   372  C   4.0   -0.04    4.34    4.28    29.77654    19.23245    49.53569
   373  C   4.0   -0.00    4.39    4.36    31.54258    21.41863    50.00522
   374  H   1.0    0.06    1.08    1.44    32.82308    19.78837    44.11778
   375  H   1.0    0.05    1.05    1.44    29.31483    16.93529    46.27840
   376  H   1.0    0.04    1.04    1.43    32.36986    16.85164    47.57725
   377  H   1.0    0.06    1.05    1.44    27.89796    19.84094    49.27086
   378  H   1.0    0.05    1.04    1.43    29.68410    17.94015    51.08216
   379  H   1.0    0.05    1.04    1.43    30.59258    22.96778    50.84186
   380  H   1.0    0.05    1.04    1.43    33.27029    20.96163    50.95055
   381  N   5.0   -0.13    3.54    2.10    27.99274    23.21211    44.75538
   382  C   4.0    0.05    4.50    4.54    25.72883    24.06115    43.50530
   383  C   4.0    0.15    3.45    3.09    26.34181    25.80545    41.31929
   384  O   6.0   -0.30    1.26    1.80    28.32983    27.11466    41.26245
   385  C   4.0   -0.02    4.38    4.35    24.09045    25.52881    45.32282
   386  C   4.0    0.25    3.15    3.03    23.12779    24.14543    47.52256
   387  O   6.0   -0.30    1.25    1.80    23.42653    21.87647    47.76976
   388  O   6.0   -0.26    1.21    1.80    22.00824    25.52137    49.16986
   389  H   1.0    0.09    1.16    1.45    28.58720    23.98596    46.18045
   390  H   1.0    0.07    1.09    1.44    24.76848    22.39010    42.91678
   391  H   1.0    0.06    1.04    1.43    25.17881    27.17819    45.96704
   392  H   1.0    0.06    1.06    1.44    22.61461    26.22906    44.12229
   393  N   5.0   -0.14    3.42    2.03    24.64888    25.83769    39.47099
   394  C   4.0    0.02    4.33    4.25    24.94105    27.46344    37.28792
   395  C   4.0    0.15    3.40    3.08    22.47094    27.73121    35.93300
   396  O   6.0   -0.30    1.31    1.80    20.46127    26.95517    36.82493
   397  H   1.0    0.12    1.12    1.45    23.15067    24.77160    39.49029
   398  H   1.0    0.05    1.06    1.44    25.40345    29.35770    37.75208
   399  H   1.0    0.06    1.05    1.44    26.30229    26.64790    36.02761
   400  N   5.0   -0.14    3.54    2.10    22.65403    28.72946    33.61535
   401  C   4.0    0.04    4.49    4.53    20.61539    28.77168    31.78277
   402  C   4.0    0.15    3.45    3.10    21.66582    27.57754    29.35687
   403  O   6.0   -0.30    1.27    1.80    23.79027    28.01670    28.64491
   404  C   4.0    0.06    4.27    4.13    19.63858    31.42044    31.43496
   405  O   6.0   -0.26    2.15    1.85    18.78748    32.42176    33.75690
   406  C   4.0   -0.07    4.13    3.86    17.51160    31.54724    29.50907
   407  H   1.0    0.11    1.12    1.45    24.18975    29.53173    33.09570
   408  H   1.0    0.06    1.09    1.44    19.15786    27.50509    32.30575
   409  H   1.0    0.05    1.06    1.44    21.18914    32.56245    30.74384
   410  H   1.0    0.15    1.09    1.44    17.40416    31.50896    34.36143
   411  H   1.0    0.06    1.01    1.43    15.95477    30.40353    30.10952
   412  H   1.0    0.05    1.01    1.43    18.08518    30.84216    27.72031
   413  H   1.0    0.04    1.02    1.43    16.91564    33.43508    29.39059
   414  N   5.0   -0.15    3.51    2.08    20.08207    26.01963    28.08080
   415  C   4.0    0.04    4.56    4.61    20.90678    24.82186    25.77383
   416  C   4.0    0.15    3.43    3.09    20.91663    26.78548    23.59746
   417  O   6.0   -0.32    1.28    1.80    18.92747    27.90458    23.06175
   418  C   4.0   -0.03    4.24    4.08    19.22862    22.63036    25.08080
   419  S   6.0   -0.01    2.51    3.10    19.39093    20.05734    27.38106
   420  H   1.0    0.11    1.12    1.45    18.41968    25.59276    28.52768
   421  H   1.0    0.06    1.09    1.44    22.77966    24.06477    26.06316
   422  H   1.0    0.07    1.10    1.44    17.29786    23.16379    25.04726
   423  H   1.0    0.04    1.09    1.44    19.64614    22.04536    23.26110
   424  N   5.0   -0.14    3.50    2.08    23.10171    27.14727    22.53217
   425  C   4.0    0.04    4.44    4.45    23.56041    29.04591    20.61126
   426  C   4.0    0.15    3.44    3.09    24.38239    27.73862    18.19157
   427  O   6.0   -0.32    1.28    1.80    25.91678    25.95506    18.26592
   428  C   4.0   -0.03    4.36    4.30    25.63881    30.83907    21.56318
   429  C   4.0   -0.02    3.57    3.15    26.25291    32.89335    19.77802
   430  C   4.0   -0.04    3.47    3.10    28.38894    32.74530    18.20471
   431  C   4.0   -0.04    3.49    3.11    24.75957    35.03972    19.61241
   432  C   4.0   -0.03    3.46    3.10    28.93003    34.70559    16.52966
   433  C   4.0   -0.05    3.45    3.10    25.28458    36.95420    17.94809
   434  C   4.0    0.07    3.46    3.10    27.39888    36.84683    16.41533
   435  O   6.0   -0.27    2.13    1.84    28.01508    38.75009    14.85219
   436  H   1.0    0.12    1.13    1.45    24.53740    26.23771    23.14474
   437  H   1.0    0.06    1.08    1.44    21.85313    30.09130    20.34528
   438  H   1.0    0.05    1.05    1.44    24.91162    31.60394    23.30405
   439  H   1.0    0.05    1.03    1.43    27.40848    29.87232    22.00305
   440  H   1.0    0.05    1.05    1.44    29.66083    31.27406    18.36322
   441  H   1.0    0.06    1.04    1.43    23.14005    35.12474    20.84026
   442  H   1.0    0.05    1.06    1.44    30.58793    34.69212    15.52326
   443  H   1.0    0.05    1.04    1.43    24.09079    38.57709    17.86835
   444  H   1.0    0.11    1.06    1.44    26.93900    40.14094    15.16289
   445  N   5.0   -0.15    3.43    2.04    23.38417    28.58000    16.03846
   446  C   4.0    0.04    4.31    4.22    24.06781    27.46956    13.60181
   447  C   4.0    0.08    3.22    3.04    26.51848    28.56513    12.47928
   448  O   6.0   -0.30    1.13    1.80    26.79039    30.81561    12.21813
   449  C   4.0   -0.03    4.33    4.25    21.88290    27.90201    11.67745
   450  C   4.0   -0.01    3.57    3.15    22.55884    26.90145     9.10018
   451  C   4.0   -0.04    3.50    3.11    23.69145    28.31630     7.23870
   452  C   4.0   -0.03    3.49    3.11    22.15059    24.32309     8.62265
   453  C   4.0   -0.05    3.44    3.09    24.50027    27.24912     4.98322
   454  C   4.0   -0.04    3.46    3.10    22.88181    23.23586     6.38409
   455  C   4.0    0.06    3.49    3.11    24.14327    24.71979     4.54595
   456  O   6.0   -0.28    2.12    1.84    24.95265    23.54200     2.36834
   457  H   1.0    0.10    1.12    1.45    22.17183    29.89907    16.04890
   458  H   1.0    0.05    1.07    1.44    24.35345    25.49447    14.07707
   459  H   1.0    0.05    1.05    1.44    20.17408    27.13508    12.31945
   460  H   1.0    0.06    1.04    1.43    21.47451    29.87686    11.56326
   461  H   1.0    0.06    1.06    1.44    24.09228    30.20223     7.49253
   462  H   1.0    0.07    1.05    1.44    21.35546    23.11701     9.99297
   463  H   1.0    0.05    1.06    1.44    25.36846    28.35944     3.64057
   464  H   1.0    0.07    1.05    1.44    22.49294    21.32090     6.16201
   465  H   1.0    0.13    1.13    1.45    24.80068    21.92231     2.78661
   466  C   4.0    0.01    3.93    3.51     6.95213     4.98145    26.62075
   467  O   6.0   -0.25    2.02    1.83     7.48796     5.24413    29.12777
   468  H   1.0    0.04    1.01    1.43     6.03433     6.65697    26.02991
   469  H   1.0    0.05    1.02    1.43     8.65945     4.76286    25.61187
   470  H   1.0    0.04    0.98    1.43     5.65865     3.38310    26.33686
   471  H   1.0    0.11    1.00    1.43     5.88440     5.44589    30.11288
   472  C   4.0    0.00    3.94    3.52     3.21561     1.89322    21.23532
   473  O   6.0   -0.26    2.02    1.83     4.89436     3.46452    19.92765
   474  H   1.0    0.06    1.00    1.43     4.06590     0.07204    21.32787
   475  H   1.0    0.04    1.01    1.43     2.95478     2.67890    23.03252
   476  H   1.0    0.05    1.01    1.43     1.52102     1.86771    20.18540
   477  H   1.0    0.12    1.04    1.43     4.28895     5.12262    19.84491
   478  C   4.0    0.01    3.93    3.50    10.07906     4.31202    11.02991
   479  O   6.0   -0.24    2.02    1.83     9.69105     1.92948    12.09652
   480  H   1.0    0.04    1.00    1.43     9.37251     5.66064    12.37724
   481  H   1.0    0.04    0.99    1.43     9.01620     4.50752     9.30928
   482  H   1.0    0.05    1.00    1.43    12.04773     4.65468    10.70319
   483  H   1.0    0.14    1.05    1.44    10.39525     0.71064    11.00390
   484  C   4.0    0.02    3.94    3.53    31.18549     5.13284    34.95108
   485  O   6.0   -0.27    2.24    1.87    30.62726     7.58213    35.61843
   486  H   1.0    0.05    0.99    1.43    32.17546     4.09088    36.40960
   487  H   1.0    0.04    0.99    1.43    29.51288     4.09548    34.41692
   488  H   1.0    0.04    1.00    1.43    32.36879     5.23187    33.28722
   489  H   1.0    0.15    1.11    1.44    29.54324     7.55437    37.10621
   490  C   4.0    0.06    4.35    4.29    33.26895    11.31144    31.53126
   491  O   6.0   -0.25    2.08    1.84    30.68568    10.83996    31.89355
   492  H   1.0    0.07    1.08    1.44    33.67020    12.82152    32.75070
   493  H   1.0    0.07    1.08    1.44    34.29529     9.65059    31.63783
   494  H   1.0    0.05    0.95    1.42    33.72898    12.21933    29.63379
   495  H   1.0    0.11    1.00    1.43    30.19196     9.41437    30.77941
   496  C   4.0    0.01    3.95    3.53    25.49161     4.27144    26.51289
   497  O   6.0   -0.26    2.03    1.83    26.81820     3.30451    28.48342
   498  H   1.0    0.05    1.00    1.43    26.22335     6.03663    25.87230
   499  H   1.0    0.05    1.00    1.43    23.57417     4.54799    27.09619
   500  H   1.0    0.04    1.01    1.43    25.72173     2.79015    25.16031
   501  H   1.0    0.11    1.04    1.43    28.54058     3.05251    28.02503
   502  C   4.0    0.01    3.89    3.44    29.23340    14.73451    27.52765
   503  O   6.0   -0.26    2.01    1.83    27.66257    14.18848    29.71973
   504  H   1.0    0.04    0.98    1.43    28.85047    13.43079    25.98700
   505  H   1.0    0.05    1.00    1.43    28.90082    16.64410    26.95221
   506  H   1.0    0.05    0.99    1.43    31.21881    14.69026    27.96229
   507  H   1.0    0.14    1.07    1.44    28.13080    12.57311    30.33290
   508  C   4.0    0.01    3.91    3.48    14.44710    18.40571    42.16678
   509  O   6.0   -0.23    1.98    1.82    13.44925    20.60425    43.49067
   510  H   1.0    0.07    1.01    1.43    15.57883    19.10736    40.70312
   511  H   1.0    0.05    1.01    1.43    12.90767    17.40777    41.45439
   512  H   1.0    0.04    1.01    1.43    15.50767    17.39696    43.47183
   513  H   1.0    0.12    1.00    1.43    12.55752    20.07429    45.02330
   514  C   4.0    0.02    3.07    3.02    20.21746    25.25693    55.55170
   515  O   6.0   -0.25    1.02    1.80    21.33901    23.48611    53.62779
   516  H   1.0    0.04    1.98    2.45    20.62896    27.04382    55.62075
   517  H   1.0    0.02    1.61    1.71    21.48061    27.31510    56.38542
   518  H   1.0    0.04    0.50    1.40    19.95397    23.81499    57.83985
   519  H   1.0    0.08    0.13    1.40    18.30935    23.86086    52.65034
   520  O   6.0   -0.32    2.06    1.83    24.13968    13.07087    15.76302
   521  H   1.0    0.13    0.99    1.43    25.52771    13.09582    14.72692
   522  H   1.0    0.13    1.01    1.43    22.87971    14.04426    15.24026
   523  O   6.0   -0.31    2.00    1.83    28.45450    12.55225    18.49723
   524  H   1.0    0.14    0.99    1.43    29.89491    13.56937    18.44473
   525  H   1.0    0.16    1.01    1.43    27.21288    13.67519    19.00609
   526  O   6.0   -0.32    2.01    1.83    19.77643    32.79486    15.96663
   527  H   1.0    0.14    1.00    1.43    21.07137    33.92052    15.79304
   528  H   1.0    0.15    1.00    1.43    18.33995    33.72761    15.93625
   529  O   6.0   -0.30    2.01    1.83     9.54362    18.36346    36.65091
   530  H   1.0    0.17    1.03    1.43    11.06247    19.14494    36.43634
   531  H   1.0    0.17    1.04    1.43     8.67063    19.25551    37.85287
   532  O   6.0   -0.28    1.96    1.82    18.52153    27.66079    41.62191
   533  H   1.0    0.15    1.00    1.43    19.88805    28.22367    40.67656
   534  H   1.0    0.14    1.01    1.43    17.37334    29.06663    41.56456
   535  O   6.0   -0.31    1.93    1.82    29.22177     7.83302    14.04299
   536  H   1.0    0.12    0.95    1.42    31.02714     7.33575    14.29666
   537  H   1.0    0.13    0.97    1.43    29.02903     9.40703    14.94825
   538  O   6.0   -0.27    1.93    1.82    14.02508    28.08651     7.51763
   539  H   1.0    0.12    0.95    1.42    15.61262    28.77925     6.82207
   540  H   1.0    0.12    0.97    1.43    12.57730    28.74923     6.66151
   541  O   6.0   -0.34    1.97    1.82    11.68803    19.55522    15.37965
   542  H   1.0    0.13    1.00    1.43    12.89937    20.41564    14.45724
   543  H   1.0    0.12    0.97    1.43    10.01476    20.27900    15.26572
   544  O   6.0   -0.32    1.99    1.82    27.29569     9.70042    22.38470
   545  H   1.0    0.14    1.00    1.43    28.72387    10.63426    22.42782
   546  H   1.0    0.16    1.00    1.43    25.79651    10.53995    22.51683
   547  C   4.0    0.02    3.93    3.50    29.73626     1.54949    41.76842
   548  O   6.0   -0.27    2.07    1.83    29.58043    -1.04757    41.36276
   549  H   1.0    0.05    0.99    1.43    30.62943     1.97401    43.54255
   550  H   1.0    0.06    0.99    1.43    27.93022     2.49922    41.62672
   551  H   1.0    0.05    1.01    1.43    30.93391     2.20723    40.29147
   552  H   1.0    0.12    1.05    1.44    28.66122    -1.80066    42.70162
   553  C   4.0    0.02    3.92    3.50     1.76264     1.54949    41.76842
   554  O   6.0   -0.27    2.07    1.83     1.60682    -1.04757    41.36276
   555  H   1.0    0.06    0.99    1.43     2.65581     1.97401    43.54255
   556  H   1.0    0.06    0.99    1.43    -0.04340     2.49922    41.62672
   557  H   1.0    0.05    1.01    1.43     2.96030     2.20723    40.29147
   558  H   1.0    0.12    1.04    1.43     0.68760    -1.80066    42.70162
   559  C   4.0    0.02    3.93    3.50    14.87765    34.07234    41.76842
   560  O   6.0   -0.27    2.07    1.83    14.72182    31.47529    41.36276
   561  H   1.0    0.05    0.99    1.43    15.77081    34.49687    43.54255
   562  H   1.0    0.06    0.99    1.43    13.07160    35.02208    41.62672
   563  H   1.0    0.05    1.01    1.43    16.07530    34.73009    40.29147
   564  H   1.0    0.12    1.05    1.44    13.80260    30.72220    42.70162
   565  C   4.0    0.01    3.91    3.48    27.34990    -0.49706    34.70824
   566  O   6.0   -0.27    2.04    1.83    29.32839    -1.52963    36.20315
   567  H   1.0    0.04    0.99    1.43    26.49821     1.13414    35.62745
   568  H   1.0    0.05    0.99    1.43    25.91581    -1.91156    34.38920
   569  H   1.0    0.06    1.01    1.43    28.11878    -0.01696    32.96908
   570  H   1.0    0.14    1.05    1.44    28.72876    -1.94758    37.85447
   571  C   4.0    0.01    3.91    3.48    -0.62371    -0.49706    34.70824
   572  O   6.0   -0.26    2.04    1.83     1.35478    -1.52963    36.20315
   573  H   1.0    0.04    0.99    1.43    -1.47541     1.13414    35.62745
   574  H   1.0    0.05    0.99    1.43    -2.05780    -1.91156    34.38920
   575  H   1.0    0.06    1.01    1.43     0.14516    -0.01696    32.96908
   576  H   1.0    0.14    1.05    1.44     0.75514    -1.94758    37.85447
   577  C   4.0    0.01    3.91    3.48    12.49129    32.02579    34.70824
   578  O   6.0   -0.26    2.04    1.83    14.46978    30.99322    36.20315
   579  H   1.0    0.04    0.99    1.43    11.63959    33.65699    35.62745
   580  H   1.0    0.05    0.99    1.43    11.05720    30.61130    34.38920
   581  H   1.0    0.06    1.01    1.43    13.26016    32.50589    32.96908
   582  H   1.0    0.14    1.05    1.44    13.87014    30.57528    37.85447
   583  C   4.0   -0.00    3.93    3.50    11.65108     8.93169    71.89627
   584  O   6.0   -0.27    1.98    1.82    12.18691     9.19436    74.40329
   585  H   1.0    0.03    1.01    1.43    10.73328    10.60720    71.30543
   586  H   1.0    0.04    1.01    1.43    13.35840     8.71309    70.88739
   587  H   1.0    0.03    0.98    1.43    10.35760     7.33333    71.61238
   588  H   1.0    0.09    1.00    1.43    10.58335     9.39613    75.38840
   589  C   4.0    0.01    3.93    3.51    20.06714    37.50431    26.62075
   590  O   6.0   -0.25    2.02    1.83    20.60297    37.76699    29.12777
   591  H   1.0    0.04    1.01    1.43    19.14934    39.17983    26.02991
   592  H   1.0    0.05    1.02    1.43    21.77445    37.28572    25.61187
   593  H   1.0    0.03    0.98    1.43    18.77365    35.90596    26.33686
   594  H   1.0    0.11    1.00    1.43    18.99940    37.96875    30.11288
   595  C   4.0    0.01    3.93    3.51    34.92575     4.98145    26.62075
   596  O   6.0   -0.25    2.02    1.83    35.46158     5.24413    29.12777
   597  H   1.0    0.04    1.01    1.43    34.00795     6.65697    26.02991
   598  H   1.0    0.05    1.02    1.43    36.63307     4.76286    25.61187
   599  H   1.0    0.03    0.98    1.43    33.63226     3.38310    26.33686
   600  H   1.0    0.11    1.00    1.43    33.85801     5.44589    30.11288
   601  C   4.0   -0.01    3.94    3.52     7.91456     5.84345    66.51084
   602  O   6.0   -0.27    2.01    1.83     9.59331     7.41475    65.20317
   603  H   1.0    0.04    1.00    1.43     8.76485     4.02228    66.60339
   604  H   1.0    0.03    1.01    1.43     7.65373     6.62914    68.30804
   605  H   1.0    0.03    1.01    1.43     6.21997     5.81795    65.46092
   606  H   1.0    0.11    1.04    1.43     8.98790     9.07285    65.12043
   607  C   4.0   -0.00    3.94    3.52    35.88817     5.84345    66.51084
   608  O   6.0   -0.26    2.01    1.83    37.56692     7.41475    65.20317
   609  H   1.0    0.04    1.00    1.43    36.73846     4.02228    66.60339
   610  H   1.0    0.03    1.01    1.43    35.62734     6.62914    68.30804
   611  H   1.0    0.04    1.01    1.43    34.19359     5.81795    65.46092
   612  H   1.0    0.12    1.04    1.43    36.96151     9.07285    65.12043
   613  C   4.0   -0.00    3.94    3.52    16.33061    34.41608    21.23532
   614  O   6.0   -0.27    2.01    1.83    18.00936    35.98738    19.92765
   615  H   1.0    0.06    1.00    1.43    17.18090    32.59490    21.32787
   616  H   1.0    0.03    1.01    1.43    16.06978    35.20176    23.03252
   617  H   1.0    0.04    1.01    1.43    14.63602    34.39057    20.18540
   618  H   1.0    0.11    1.04    1.43    17.40395    37.64547    19.84491
   619  C   4.0   -0.00    3.94    3.52    31.18922     1.89322    21.23532
   620  O   6.0   -0.26    2.01    1.83    32.86798     3.46452    19.92765
   621  H   1.0    0.04    1.00    1.43    32.03951     0.07204    21.32787
   622  H   1.0    0.03    1.01    1.43    30.92839     2.67890    23.03252
   623  H   1.0    0.04    1.01    1.43    29.49464     1.86771    20.18540
   624  H   1.0    0.12    1.04    1.43    32.26256     5.12262    19.84491
   625  C   4.0    0.01    3.93    3.50    14.77801     8.26226    56.30543
   626  O   6.0   -0.25    2.02    1.83    14.39000     5.87971    57.37204
   627  H   1.0    0.04    1.00    1.43    14.07146     9.61087    57.65276
   628  H   1.0    0.04    0.99    1.43    13.71515     8.45775    54.58480
   629  H   1.0    0.05    1.00    1.43    16.74668     8.60491    55.97871
   630  H   1.0    0.14    1.05    1.44    15.09420     4.66087    56.27942
   631  C   4.0    0.02    3.94    3.53     3.21187     5.13284    34.95108
   632  O   6.0   -0.27    2.24    1.87     2.65364     7.58213    35.61843
   633  H   1.0    0.05    0.99    1.43     4.20185     4.09088    36.40960
   634  H   1.0    0.04    0.99    1.43     1.53927     4.09548    34.41692
   635  H   1.0    0.04    1.00    1.43     4.39518     5.23187    33.28722
   636  H   1.0    0.15    1.11    1.44     1.56962     7.55437    37.10621
   637  C   4.0    0.02    3.92    3.50    16.32687    37.65570    34.95108
   638  O   6.0   -0.26    2.01    1.83    15.76864    40.10499    35.61843
   639  H   1.0    0.05    0.99    1.43    17.31685    36.61374    36.40960
   640  H   1.0    0.04    0.99    1.43    14.65427    36.61834    34.41692
   641  H   1.0    0.05    1.00    1.43    17.51018    37.75472    33.28722
   642  H   1.0    0.15    1.11    1.44    14.68462    40.07723    37.10621
   643  C   4.0    0.06    4.35    4.29     5.29533    11.31144    31.53126
   644  O   6.0   -0.25    2.08    1.84     2.71207    10.83996    31.89355
   645  H   1.0    0.07    1.08    1.44     5.69659    12.82152    32.75070
   646  H   1.0    0.07    1.08    1.44     6.32167     9.65059    31.63783
   647  H   1.0    0.05    0.95    1.42     5.75537    12.21933    29.63379
   648  H   1.0    0.11    1.00    1.43     2.21835     9.41437    30.77941
   649  C   4.0    0.00    3.94    3.53    30.19056     8.22167    71.78841
   650  O   6.0   -0.25    2.03    1.83    31.51715     7.25474    73.75894
   651  H   1.0    0.04    1.00    1.43    30.92230     9.98686    71.14782
   652  H   1.0    0.04    1.00    1.43    28.27312     8.49822    72.37171
   653  H   1.0    0.04    1.01    1.43    30.42068     6.74038    70.43583
   654  H   1.0    0.11    1.04    1.43    33.23953     7.00274    73.30055
   655  C   4.0    0.02    3.94    3.53    -2.48200     4.27144    26.51289
   656  O   6.0   -0.25    2.03    1.83    -1.15542     3.30451    28.48342
   657  H   1.0    0.06    1.00    1.43    -1.75026     6.03663    25.87230
   658  H   1.0    0.06    1.00    1.43    -4.39945     4.54799    27.09619
   659  H   1.0    0.05    1.01    1.43    -2.25188     2.79015    25.16031
   660  H   1.0    0.11    1.04    1.43     0.56697     3.05251    28.02503
   661  C   4.0    0.00    3.94    3.53    10.63300    36.79430    26.51289
   662  O   6.0   -0.26    2.03    1.83    11.95959    35.82737    28.48342
   663  H   1.0    0.03    1.00    1.43    11.36474    38.55949    25.87230
   664  H   1.0    0.04    1.00    1.43     8.71556    37.07085    27.09619
   665  H   1.0    0.04    1.01    1.43    10.86312    35.31301    25.16031
   666  H   1.0    0.11    1.04    1.43    13.68197    35.57536    28.02503
   667  C   4.0    0.01    3.89    3.44     1.25978    14.73451    27.52765
   668  O   6.0   -0.26    2.01    1.83    -0.31104    14.18848    29.71973
   669  H   1.0    0.04    0.98    1.43     0.87686    13.43079    25.98700
   670  H   1.0    0.05    1.00    1.43     0.92721    16.64410    26.95221
   671  H   1.0    0.05    0.99    1.43     3.24520    14.69026    27.96229
   672  H   1.0    0.14    1.07    1.44     0.15718    12.57311    30.33290
   673  C   4.0    0.00    3.91    3.48    29.30571   -14.11714    42.16678
   674  O   6.0   -0.24    1.98    1.82    28.30786   -11.91861    43.49067
   675  H   1.0    0.06    1.01    1.43    30.43744   -13.41550    40.70312
   676  H   1.0    0.05    1.01    1.43    27.76629   -15.11509    41.45439
   677  H   1.0    0.04    1.01    1.43    30.36628   -15.12590    43.47183
   678  H   1.0    0.11    1.00    1.43    27.41613   -12.44857    45.02330
   679  C   4.0    0.03    3.07    3.02    35.07607    -7.26592    55.55170
   680  O   6.0   -0.30    0.99    1.80    36.19762    -9.03675    53.62779
   681  H   1.0    0.05    1.98    2.45    35.48757    -5.47903    55.62075
   682  H   1.0    0.03    1.61    1.71    36.33922    -5.20776    56.38542
   683  H   1.0    0.04    0.50    1.40    34.81258    -8.70787    57.83985
   684  H   1.0    0.08    0.13    1.40    33.16796    -8.66200    52.65034
   685  C   4.0    0.02    3.07    3.02     7.10246    -7.26592    55.55170
   686  O   6.0   -0.26    1.01    1.80     8.22401    -9.03675    53.62779
   687  H   1.0    0.05    1.98    2.45     7.51396    -5.47903    55.62075
   688  H   1.0    0.02    1.61    1.71     8.36561    -5.20776    56.38542
   689  H   1.0    0.03    0.49    1.40     6.83897    -8.70787    57.83985
   690  H   1.0    0.08    0.13    1.40     5.19435    -8.66200    52.65034
   691  C   4.0    0.03    3.07    3.02    15.51851    21.30670    10.27618
   692  O   6.0   -0.28    1.00    1.80    16.64006    19.53588     8.35227
   693  H   1.0    0.05    1.98    2.45    15.93001    23.09359    10.34523
   694  H   1.0    0.03    1.61    1.71    16.78166    23.36486    11.10990
   695  H   1.0    0.04    0.50    1.40    15.25502    19.86476    12.56433
   696  H   1.0    0.07    0.13    1.40    13.61040    19.91063     7.37482
   697  O   6.0   -0.32    2.06    1.83    28.83863    17.02110    61.03854
   698  H   1.0    0.14    1.00    1.43    30.22666    17.04605    60.00244
   699  H   1.0    0.14    1.01    1.43    27.57866    17.99449    60.51579
   700  O   6.0   -0.31    2.00    1.83    33.15345    16.50249    63.77275
   701  H   1.0    0.14    0.99    1.43    34.59386    17.51961    63.72025
   702  H   1.0    0.16    1.01    1.43    31.91183    17.62542    64.28161
   703  O   6.0   -0.31    1.99    1.82     0.48089    12.55225    18.49723
   704  H   1.0    0.15    0.99    1.43     1.92130    13.56937    18.44473
   705  H   1.0    0.15    1.00    1.43    -0.76074    13.67519    19.00609
   706  O   6.0   -0.31    2.02    1.83     6.66142     0.27200    15.96663
   707  H   1.0    0.15    1.01    1.43     7.95636     1.39766    15.79304
   708  H   1.0    0.16    1.00    1.43     5.22495     1.20475    15.93625
   709  O   6.0   -0.33    2.01    1.83    11.36037     4.22223    61.24215
   710  H   1.0    0.15    1.01    1.43    12.65531     5.34789    61.06856
   711  H   1.0    0.14    1.00    1.43     9.92389     5.15499    61.21177
   712  O   6.0   -0.30    2.00    1.83    37.51723    18.36346    36.65091
   713  H   1.0    0.14    1.00    1.43    39.03609    19.14494    36.43634
   714  H   1.0    0.17    1.04    1.43    36.64424    19.25551    37.85287
   715  O   6.0   -0.29    1.96    1.82    33.38014    -4.86206    41.62191
   716  H   1.0    0.13    0.99    1.43    34.74666    -4.29918    40.67656
   717  H   1.0    0.14    1.01    1.43    32.23195    -3.45622    41.56456
   718  O   6.0   -0.27    1.96    1.82     5.40653    -4.86206    41.62191
   719  H   1.0    0.15    1.00    1.43     6.77305    -4.29918    40.67656
   720  H   1.0    0.15    1.01    1.43     4.25834    -3.45622    41.56456
   721  O   6.0   -0.31    1.96    1.82    33.08948    15.98556    55.65163
   722  H   1.0    0.12    0.98    1.43    34.42858    17.14876    55.42917
   723  H   1.0    0.12    0.96    1.43    32.86227    15.30844    53.94907
   724  O   6.0   -0.30    1.94    1.82    33.92071    11.78325    59.31851
   725  H   1.0    0.12    0.95    1.42    35.72609    11.28598    59.57218
   726  H   1.0    0.14    0.97    1.43    33.72798    13.35726    60.22377
   727  O   6.0   -0.31    1.89    1.82     5.94710    11.78325    59.31851
   728  H   1.0    0.11    0.95    1.42     7.75248    11.28598    59.57218
   729  H   1.0    0.11    0.97    1.43     5.75436    13.35726    60.22377
   730  O   6.0   -0.29    1.89    1.82     1.24815     7.83302    14.04299
   731  H   1.0    0.12    0.95    1.42     3.05353     7.33575    14.29666
   732  H   1.0    0.13    0.97    1.43     1.05541     9.40703    14.94825
   733  O   6.0   -0.26    1.93    1.82    33.58265    -0.48611    52.79315
   734  H   1.0    0.13    0.95    1.42    35.17018     0.20662    52.09759
   735  H   1.0    0.14    0.97    1.43    32.13486     0.17660    51.93703
   736  O   6.0   -0.30    1.91    1.82     5.60903    -0.48611    52.79315
   737  H   1.0    0.13    0.95    1.42     7.19657     0.20662    52.09759
   738  H   1.0    0.14    0.97    1.43     4.16125     0.17660    51.93703
   739  O   6.0   -0.33    1.94    1.82    16.38698    23.50545    60.65517
   740  H   1.0    0.12    1.00    1.43    17.59832    24.36587    59.73276
   741  H   1.0    0.12    0.97    1.43    14.71371    24.22924    60.54124
   742  O   6.0   -0.33    1.97    1.82    31.24559    -9.01741    60.65517
   743  H   1.0    0.13    1.00    1.43    32.45693    -8.15699    59.73276
   744  H   1.0    0.13    0.97    1.43    29.57232    -8.29362    60.54124
   745  O   6.0   -0.33    1.98    1.82    31.99464    13.65066    67.66022
   746  H   1.0    0.14    1.00    1.43    33.42282    14.58449    67.70334
   747  H   1.0    0.14    0.99    1.43    30.49546    14.49019    67.79235
   748  O   6.0   -0.32    1.99    1.82    -0.67792     9.70042    22.38470
   749  H   1.0    0.14    1.00    1.43     0.75025    10.63426    22.42782
   750  H   1.0    0.16    1.00    1.43    -2.17710    10.53995    22.51683
   751  N   5.0   -0.12    4.13    3.24    24.58678    36.04377    37.48414
   752  C   4.0   -0.01    4.27    4.14    24.11984    36.25044    34.83495
   753  C   4.0    0.15    3.38    3.07    26.16304    37.82088    33.57672
   754  O   6.0   -0.32    1.27    1.80    28.19166    38.13555    34.64450
   755  H   1.0    0.07    1.06    1.44    25.93098    37.20619    38.09991
   756  H   1.0    0.06    1.06    1.44    23.03591    36.40445    38.43689
   757  H   1.0    0.06    1.04    1.43    25.04948    34.22939    37.92160
   758  H   1.0    0.06    1.05    1.44    23.88715    34.44011    34.09061
   759  H   1.0    0.04    1.05    1.44    22.37425    37.20688    34.57554
   760  N   5.0   -0.14    3.50    2.08    25.52696    38.74161    31.37384
   761  C   4.0    0.04    4.39    4.36    27.24649    40.48433    30.11089
   762  C   4.0    0.06    3.22    3.04    25.74625    42.82743    29.23533
   763  O   6.0   -0.29    1.14    1.80    23.47080    42.72365    28.80822
   764  C   4.0   -0.04    4.07    3.74    28.78527    39.25870    27.99978
   765  S   6.0   -0.07    2.36    3.10    27.03424    38.11290    25.27945
   766  H   1.0    0.11    1.13    1.45    23.88041    38.59878    30.67598
   767  H   1.0    0.05    1.08    1.44    28.52052    41.18137    31.57834
   768  H   1.0    0.03    1.08    1.44    30.14459    40.59104    27.26922
   769  H   1.0    0.04    1.10    1.44    29.59948    37.53233    28.69691
   770  H   1.0    0.04    1.00    1.43    28.10090    37.76548    23.30869
   771  N   5.0   -0.12    4.13    3.24    -3.38683    36.04377    37.48414
   772  C   4.0   -0.01    4.27    4.14    -3.85377    36.25044    34.83495
   773  C   4.0    0.15    3.38    3.07    -1.81057    37.82088    33.57672
   774  O   6.0   -0.30    1.27    1.80     0.21805    38.13555    34.64450
   775  H   1.0    0.09    1.06    1.44    -2.04263    37.20619    38.09991
   776  H   1.0    0.05    1.06    1.44    -4.93770    36.40445    38.43689
   777  H   1.0    0.06    1.04    1.43    -2.92413    34.22939    37.92160
   778  H   1.0    0.06    1.05    1.44    -4.08647    34.44011    34.09061
   779  H   1.0    0.04    1.05    1.44    -5.59936    37.20688    34.57554
   780  N   5.0   -0.15    3.50    2.07    -2.44665    38.74161    31.37384
   781  C   4.0    0.05    4.40    4.38    -0.72713    40.48433    30.11089
   782  C   4.0    0.08    3.27    3.05    -2.22736    42.82743    29.23533
   783  O   6.0   -0.31    1.15    1.80    -4.50282    42.72365    28.80822
   784  C   4.0   -0.03    4.17    3.93     0.81166    39.25870    27.99978
   785  S   6.0   -0.03    2.45    3.10    -0.93938    38.11290    25.27945
   786  H   1.0    0.09    1.10    1.44    -4.09320    38.59878    30.67598
   787  H   1.0    0.07    1.08    1.44     0.54690    41.18137    31.57834
   788  H   1.0    0.05    1.09    1.44     2.17098    40.59104    27.26922
   789  H   1.0    0.05    1.10    1.44     1.62586    37.53233    28.69691
   790  N   5.0   -0.12    4.13    3.24    39.44540     3.52091    37.48414
   791  C   4.0   -0.02    4.27    4.14    38.97846     3.72758    34.83495
   792  C   4.0    0.15    3.38    3.07    41.02165     5.29802    33.57672
   793  O   6.0   -0.32    1.27    1.80    43.05027     5.61269    34.64450
   794  H   1.0    0.07    1.06    1.44    40.78959     4.68333    38.09991
   795  H   1.0    0.06    1.06    1.44    37.89452     3.88160    38.43689
   796  H   1.0    0.06    1.04    1.43    39.90809     1.70653    37.92160
   797  H   1.0    0.05    1.05    1.44    38.74576     1.91725    34.09061
   798  H   1.0    0.05    1.05    1.44    37.23286     4.68402    34.57554
   799  N   5.0   -0.15    3.50    2.08    40.38558     6.21875    31.37384
   800  C   4.0    0.04    4.49    4.53    42.10510     7.96147    30.11089
   801  C   4.0    0.15    3.45    3.09    40.60486    10.30458    29.23533
   802  O   6.0   -0.30    1.24    1.80    38.32941    10.20079    28.80822
   803  C   4.0   -0.04    4.07    3.75    43.64388     6.73584    27.99978
   804  S   6.0   -0.06    2.35    3.10    41.89285     5.59004    25.27945
   805  H   1.0    0.11    1.13    1.45    38.73903     6.07592    30.67598
   806  H   1.0    0.05    1.08    1.44    43.37913     8.65851    31.57834
   807  H   1.0    0.04    1.08    1.44    45.00320     8.06818    27.26922
   808  H   1.0    0.04    1.10    1.44    44.45809     5.00948    28.69691
   809  H   1.0    0.04    1.00    1.43    42.95951     5.24262    23.30869
   810  N   5.0   -0.15    3.47    2.06    41.97863    12.41901    29.12619
   811  C   4.0    0.04    4.34    4.28    40.90558    14.86989    28.62833
   812  C   4.0    0.16    3.39    3.08    41.28118    15.67015    25.82441
   813  O   6.0   -0.30    1.23    1.80    43.12776    15.05745    24.60318
   814  C   4.0   -0.07    4.17    3.94    42.14633    16.83210    30.30683
   815  H   1.0    0.08    1.11    1.45    43.70341    12.23379    29.41958
   816  H   1.0    0.06    1.06    1.44    38.86991    14.71979    29.00437
   817  H   1.0    0.06    1.04    1.43    44.06812    16.73803    29.99429
   818  H   1.0    0.05    1.01    1.43    41.62614    16.58013    32.24963
   819  H   1.0    0.05    1.03    1.43    41.64013    18.65394    29.87204
   820  N   5.0   -0.14    3.50    2.07    39.49835    17.22339    24.95805
   821  C   4.0    0.04    4.35    4.29    39.50446    18.21747    22.38662
   822  C   4.0    0.07    3.18    3.03    40.46932    20.97681    22.39223
   823  O   6.0   -0.30    1.16    1.80    41.13952    22.06378    24.28319
   824  C   4.0   -0.04    4.35    4.29    36.89848    17.89218    21.22285
   825  C   4.0   -0.01    3.56    3.14    36.23484    15.19862    20.91556
   826  C   4.0   -0.04    3.44    3.09    37.33569    13.83247    18.96396
   827  C   4.0   -0.03    3.43    3.09    34.73016    13.89607    22.70847
   828  C   4.0   -0.04    3.31    3.06    36.79619    11.29559    18.60317
   829  C   4.0   -0.03    3.33    3.06    34.24523    11.30930    22.43640
   830  C   4.0   -0.04    3.34    3.06    35.16882    10.04478    20.30612
   831  H   1.0    0.10    1.10    1.44    38.15848    17.69909    26.05636
   832  H   1.0    0.05    1.08    1.44    40.88205    17.19258    21.31407
   833  H   1.0    0.06    1.06    1.44    35.64884    18.91015    22.39973
   834  H   1.0    0.03    1.04    1.43    36.85113    18.76477    19.36940
   835  H   1.0    0.04    1.00    1.43    38.51203    14.89141    17.55712
   836  H   1.0    0.06    1.03    1.43    33.99714    14.97218    24.26904
   837  H   1.0    0.04    1.00    1.43    37.72884    10.30532    16.99753
   838  H   1.0    0.05    1.03    1.43    32.99873    10.36989    23.74644
   839  H   1.0    0.05    1.02    1.43    34.73113     8.06224    20.08004
   840  N   5.0   -0.21    3.24    1.96    39.75298    26.65581    27.46476
   841  C   4.0    0.03    4.22    4.03    38.96875    25.47701    29.81989
   842  C   4.0    0.08    3.20    3.04    41.25837    25.18679    31.58229
   843  O   6.0   -0.29    1.13    1.80    43.38310    24.73845    30.79910
   844  C   4.0   -0.03    4.34    4.27    37.76219    22.89520    29.15044
   845  C   4.0   -0.03    4.24    4.08    37.03674    21.36012    31.46865
   846  C   4.0    0.24    3.15    3.03    35.57299    19.02137    30.73947
   847  O   6.0   -0.31    1.21    1.80    34.85171    18.60801    28.59038
   848  O   6.0   -0.29    1.19    1.80    35.05200    17.43486    32.53997
   849  H   1.0    0.11    1.06    1.44    40.46589    25.60919    26.16540
   850  H   1.0    0.04    1.06    1.44    37.48987    26.57400    30.67038
   851  H   1.0    0.07    1.06    1.44    36.06046    23.22380    28.19007
   852  H   1.0    0.07    1.07    1.44    39.03604    21.93380    28.01914
   853  H   1.0    0.05    1.06    1.44    38.65020    20.70883    32.42536
   854  H   1.0    0.08    1.05    1.44    35.88163    22.48455    32.68070
   855  N   5.0   -0.21    3.24    1.97    -0.42260   -10.39902    20.09970
   856  C   4.0    0.02    4.35    4.29     0.61990    -7.85585    19.91909
   857  C   4.0    0.15    3.44    3.09    -0.90771    -6.03136    21.53450
   858  O   6.0   -0.30    1.22    1.80    -3.21703    -5.97651    21.47854
   859  C   4.0   -0.04    4.35    4.28     0.48130    -7.03906    17.17369
   860  C   4.0   -0.03    4.23    4.06     1.76538    -4.57604    16.68634
   861  C   4.0    0.25    3.14    3.03     1.69271    -3.86902    13.90836
   862  O   6.0   -0.29    1.21    1.80     2.70752    -1.86201    13.35486
   863  O   6.0   -0.31    1.20    1.80     0.87397    -5.36848    12.30186
   864  H   1.0    0.08    1.04    1.43    -0.91055   -11.46809    18.72641
   865  H   1.0    0.04    1.07    1.44     2.55141    -7.94604    20.47273
   866  H   1.0    0.04    1.01    1.43     1.37049    -8.57028    16.00826
   867  H   1.0    0.06    1.06    1.44    -1.49008    -6.96148    16.77350
   868  H   1.0    0.05    1.04    1.43     0.79288    -3.08151    17.71706
   869  H   1.0    0.05    1.02    1.43     3.75042    -4.52831    17.29180
   870  N   5.0   -0.16    3.42    2.03     0.51699    -4.36908    22.90368
   871  C   4.0    0.02    4.30    4.19    -0.65125    -2.49473    24.44719
   872  C   4.0    0.15    3.32    3.06    -1.49407    -3.39138    27.06161
   873  O   6.0   -0.30    1.22    1.80    -2.34736    -1.87261    28.61493
   874  H   1.0    0.11    1.12    1.45     2.33541    -4.45869    22.90703
   875  H   1.0    0.04    1.05    1.44     0.64217    -0.98210    24.69470
   876  H   1.0    0.06    1.06    1.44    -2.31416    -1.87393    23.49821
   877  N   5.0   -0.13    3.51    2.08    -1.33563    -5.86705    27.46476
   878  C   4.0    0.03    4.42    4.41    -2.11987    -7.04584    29.81989
   879  C   4.0    0.16    3.43    3.09     0.16975    -7.33607    31.58229
   880  O   6.0   -0.30    1.27    1.80     2.29448    -7.78441    30.79910
   881  C   4.0   -0.04    4.34    4.27    -3.32643    -9.62766    29.15044
   882  C   4.0   -0.03    4.24    4.08    -4.05188   -11.16274    31.46865
   883  C   4.0    0.24    3.14    3.03    -5.51563   -13.50149    30.73947
   884  O   6.0   -0.30    1.20    1.80    -6.23691   -13.91485    28.59038
   885  O   6.0   -0.29    1.16    1.80    -6.03662   -15.08800    32.53997
   886  H   1.0    0.09    1.12    1.45    -0.62273    -6.91367    26.16540
   887  H   1.0    0.05    1.07    1.44    -3.59875    -5.94886    30.67038
   888  H   1.0    0.06    1.06    1.44    -5.02815    -9.29906    28.19007
   889  H   1.0    0.06    1.06    1.44    -2.05258   -10.58906    28.01914
   890  H   1.0    0.07    1.06    1.44    -2.43842   -11.81403    32.42536
   891  H   1.0    0.06    1.05    1.44    -5.20699   -10.03831    32.68070
   892  N   5.0   -0.15    3.47    2.06    -0.39752    -7.20281    34.03043
   893  C   4.0    0.05    4.39    4.36     1.45563    -7.67899    35.99423
   894  C   4.0    0.17    3.47    3.10     2.57860   -10.28470    35.76521
   895  O   6.0   -0.29    1.23    1.80     1.17566   -12.18320    35.44331
   896  C   4.0    0.05    4.14    3.88     0.20383    -7.43272    38.71994
   897  O   6.0   -0.23    2.08    1.84     1.74834    -8.21235    40.69133
   898  H   1.0    0.11    1.14    1.45    -2.11559    -6.89319    34.47053
   899  H   1.0    0.07    1.08    1.44     2.86687    -6.27504    35.99022
   900  H   1.0    0.05    0.99    1.43    -0.41564    -5.42066    38.89237
   901  H   1.0    0.06    1.05    1.44    -1.36426    -8.61163    38.75690
   902  H   1.0    0.13    1.05    1.44     0.93293    -7.96668    42.21993
   903  N   5.0   -0.13    3.57    2.13     5.00672   -10.46237    36.10533
   904  C   4.0    0.04    4.42    4.41     6.42798   -12.79212    36.16322
   905  C   4.0    0.08    3.24    3.04     7.86321   -13.01306    38.64963
   906  O   6.0   -0.28    1.18    1.80     8.53835   -11.10828    39.84641
   907  C   4.0   -0.04    4.18    3.95     8.05590   -13.17909    33.89210
   908  S   6.0    0.00    2.58    3.10    10.00974   -10.37487    33.21915
   909  H   1.0    0.12    1.15    1.45     6.01124    -8.97188    36.36118
   910  H   1.0    0.05    1.08    1.44     5.02959   -14.28844    36.29718
   911  H   1.0    0.04    1.08    1.44     9.32940   -14.75247    34.08994
   912  H   1.0    0.05    1.11    1.44     7.07114   -13.57846    32.15446
   913  N   5.0   -0.20    3.24    1.97    27.55102   -10.39902    20.09970
   914  C   4.0    0.02    4.35    4.29    28.59351    -7.85585    19.91909
   915  C   4.0    0.14    3.44    3.09    27.06590    -6.03136    21.53450
   916  O   6.0   -0.32    1.26    1.80    24.75658    -5.97651    21.47854
   917  C   4.0   -0.04    4.35    4.28    28.45491    -7.03906    17.17369
   918  C   4.0   -0.04    4.23    4.06    29.73899    -4.57604    16.68634
   919  C   4.0    0.24    3.14    3.03    29.66632    -3.86902    13.90836
   920  O   6.0   -0.30    1.20    1.80    30.68113    -1.86201    13.35486
   921  O   6.0   -0.31    1.20    1.80    28.84759    -5.36848    12.30186
   922  H   1.0    0.08    1.04    1.43    27.06306   -11.46809    18.72641
   923  H   1.0    0.03    1.07    1.44    30.52503    -7.94604    20.47273
   924  H   1.0    0.04    1.01    1.43    29.34410    -8.57028    16.00826
   925  H   1.0    0.05    1.06    1.44    26.48353    -6.96148    16.77350
   926  H   1.0    0.05    1.04    1.43    28.76650    -3.08151    17.71706
   927  H   1.0    0.04    1.02    1.43    31.72403    -4.52831    17.29180
   928  N   5.0   -0.17    3.40    2.02    28.49061    -4.36908    22.90368
   929  C   4.0    0.01    4.30    4.19    27.32236    -2.49473    24.44719
   930  C   4.0    0.14    3.32    3.06    26.47954    -3.39138    27.06161
   931  O   6.0   -0.31    1.22    1.80    25.62625    -1.87261    28.61493
   932  H   1.0    0.07    1.08    1.44    30.30903    -4.45869    22.90703
   933  H   1.0    0.04    1.05    1.44    28.61578    -0.98210    24.69470
   934  H   1.0    0.05    1.06    1.44    25.65945    -1.87393    23.49821
   935  N   5.0   -0.14    3.51    2.08    26.63798    -5.86705    27.46476
   936  C   4.0    0.03    4.42    4.41    25.85375    -7.04584    29.81989
   937  C   4.0    0.15    3.43    3.09    28.14337    -7.33607    31.58229
   938  O   6.0   -0.30    1.24    1.80    30.26810    -7.78441    30.79910
   939  C   4.0   -0.03    4.34    4.27    24.64719    -9.62766    29.15044
   940  C   4.0   -0.02    4.24    4.09    23.92173   -11.16274    31.46865
   941  C   4.0    0.25    3.14    3.03    22.45799   -13.50149    30.73947
   942  O   6.0   -0.29    1.20    1.80    21.73671   -13.91485    28.59038
   943  O   6.0   -0.27    1.16    1.80    21.93699   -15.08800    32.53997
   944  H   1.0    0.09    1.12    1.45    27.35089    -6.91367    26.16540
   945  H   1.0    0.06    1.07    1.44    24.37487    -5.94886    30.67038
   946  H   1.0    0.07    1.06    1.44    22.94546    -9.29906    28.19007
   947  H   1.0    0.06    1.06    1.44    25.92103   -10.58906    28.01914
   948  H   1.0    0.07    1.06    1.44    25.53519   -11.81403    32.42536
   949  H   1.0    0.08    1.05    1.44    22.76662   -10.03831    32.68070
   950  N   5.0   -0.14    3.47    2.06    27.57609    -7.20281    34.03043
   951  C   4.0    0.05    4.27    4.15    29.42924    -7.67899    35.99423
   952  C   4.0    0.09    3.25    3.04    30.55221   -10.28470    35.76521
   953  O   6.0   -0.28    1.12    1.80    29.14928   -12.18320    35.44331
   954  C   4.0    0.05    4.14    3.88    28.17744    -7.43272    38.71994
   955  O   6.0   -0.24    2.10    1.84    29.72195    -8.21235    40.69133
   956  H   1.0    0.11    1.14    1.45    25.85802    -6.89319    34.47053
   957  H   1.0    0.05    1.08    1.44    30.84049    -6.27504    35.99022
   958  H   1.0    0.05    0.99    1.43    27.55798    -5.42066    38.89237
   959  H   1.0    0.07    1.05    1.44    26.60936    -8.61163    38.75690
   960  H   1.0    0.14    1.06    1.44    28.90654    -7.96668    42.21993
   961  N   5.0   -0.21    3.25    1.97    32.24997    -6.44879    65.37522
   962  C   4.0    0.02    4.35    4.29    33.29246    -3.90561    65.19461
   963  C   4.0    0.14    3.43    3.09    31.76485    -2.08113    66.81002
   964  O   6.0   -0.32    1.26    1.80    29.45553    -2.02628    66.75406
   965  C   4.0   -0.04    4.35    4.29    33.15386    -3.08883    62.44921
   966  C   4.0   -0.04    4.23    4.06    34.43794    -0.62580    61.96186
   967  C   4.0    0.24    3.14    3.03    34.36527     0.08122    59.18388
   968  O   6.0   -0.29    1.20    1.80    35.38008     2.08822    58.63038
   969  O   6.0   -0.29    1.23    1.80    33.54654    -1.41824    57.57738
   970  H   1.0    0.10    1.07    1.44    31.76201    -7.51786    64.00193
   971  H   1.0    0.03    1.07    1.44    35.22398    -3.99580    65.74825
   972  H   1.0    0.04    1.01    1.43    34.04305    -4.62005    61.28378
   973  H   1.0    0.06    1.06    1.44    31.18248    -3.01124    62.04902
   974  H   1.0    0.05    1.04    1.43    33.46545     0.86872    62.99258
   975  H   1.0    0.04    1.02    1.43    36.42298    -0.57808    62.56732
   976  N   5.0   -0.17    3.35    2.00    33.18956    -0.41885    68.17920
   977  C   4.0    0.01    4.19    3.99    32.02131     1.45550    69.72271
   978  C   4.0    0.07    3.11    3.03    31.17849     0.55886    72.33713
   979  O   6.0   -0.30    1.12    1.80    30.32520     2.07762    73.89045
   980  H   1.0    0.07    1.08    1.44    35.00798    -0.50846    68.18256
   981  H   1.0    0.04    1.05    1.44    33.31473     2.96813    69.97022
   982  H   1.0    0.05    1.06    1.44    30.35840     2.07630    68.77373
   983  N   5.0   -0.21    3.32    1.99    -9.85189    22.06049    36.10533
   984  C   4.0    0.03    4.43    4.44    -8.43063    19.73073    36.16322
   985  C   4.0    0.15    3.45    3.10    -6.99540    19.50980    38.64963
   986  O   6.0   -0.30    1.28    1.80    -6.32026    21.41458    39.84641
   987  C   4.0   -0.04    4.19    3.98    -6.80271    19.34377    33.89210
   988  S   6.0   -0.01    2.61    3.10    -4.84887    22.14798    33.21915
   989  H   1.0    0.13    1.10    1.44    -8.84737    23.55098    36.36118
   990  H   1.0    0.04    1.08    1.44    -9.82902    18.23441    36.29718
   991  H   1.0    0.05    1.08    1.44    -5.52922    17.77039    34.08994
   992  H   1.0    0.04    1.11    1.45    -7.78747    18.94440    32.15446
   993  N   5.0   -0.15    3.51    2.09    -6.44244    17.18856    39.33783
   994  C   4.0    0.04    4.45    4.46    -4.82656    16.61808    41.51089
   995  C   4.0    0.16    3.50    3.12    -3.38075    14.25555    40.73584
   996  O   6.0   -0.30    1.26    1.80    -4.56212    12.38989    39.88305
   997  C   4.0   -0.03    4.32    4.24    -6.34676    16.30753    43.93760
   998  C   4.0    0.15    3.27    3.05    -4.81480    15.06917    46.02156
   999  O   6.0   -0.31    1.28    1.80    -4.24972    12.84235    45.85110
  1000  N   5.0   -0.20    3.22    1.96    -4.30319    16.45380    48.00877
  1001  H   1.0    0.09    1.10    1.44    -7.19629    15.79232    38.47772
[...]
  1613  C   3.953    O 1614 1.577    N 1632 1.346    C 1612 0.947
  1614  O   1.927    C 1613 1.577    N 1632 0.199
  1615  C   3.986    C 1616 1.017    H 1626 0.965    H 1625 0.964    C 1612 0.948
  1616  C   3.986    C 1618 1.411    C 1617 1.394    C 1615 1.017    C 1621 0.094
  1617  C   3.991    C 1619 1.463    C 1616 1.394    H 1627 0.970    C 1620 0.103
  1618  C   3.991    C 1620 1.451    C 1616 1.411    H 1628 0.966    C 1619 0.106
  1619  C   3.988    C 1617 1.463    C 1621 1.354    H 1629 0.964    C 1618 0.106
  1620  C   3.987    C 1618 1.451    C 1621 1.366    H 1630 0.962    C 1617 0.103    O 1622 0.064
  1621  C   3.942    C 1620 1.366    C 1619 1.354    O 1622 1.088    C 1616 0.094
  1622  O   2.132    C 1621 1.088    H 1631 0.868    C 1620 0.064
  1623  H   0.942    N 1611 0.892
  1624  H   0.993    C 1612 0.958
  1625  H   0.995    C 1615 0.964
  1626  H   0.995    C 1615 0.965
  1627  H   0.998    C 1617 0.970
  1628  H   0.998    C 1618 0.966
  1629  H   0.995    C 1619 0.964
  1630  H   0.998    C 1620 0.962
  1631  H   0.902    O 1622 0.868
  1632  N   3.503    C 1613 1.346    C 1633 0.970    H 1644 0.905    O 1614 0.199
  1633  C   3.955    N 1632 0.970    C 1636 0.959    H 1645 0.955    C 1634 0.924    O 1635 0.054
  1634  C   3.954    O 1635 1.674    N 1653 1.283    C 1633 0.924
  1635  O   2.001    C 1634 1.674    N 1653 0.201    C 1633 0.054
  1636  C   3.980    C 1637 1.005    H 1646 0.969    H 1647 0.962    C 1633 0.959
  1637  C   3.986    C 1638 1.451    C 1639 1.367    C 1636 1.005    C 1642 0.097
  1638  C   3.993    C 1637 1.451    C 1640 1.409    H 1648 0.971    C 1641 0.107
  1639  C   3.991    C 1641 1.500    C 1637 1.367    H 1649 0.972    C 1640 0.104
  1640  C   3.990    C 1642 1.420    C 1638 1.409    H 1650 0.968    C 1639 0.104    O 1643 0.052
  1641  C   3.985    C 1639 1.500    C 1642 1.329    H 1651 0.966    C 1638 0.107    O 1643 0.053
  1642  C   3.947    C 1640 1.420    C 1641 1.329    O 1643 1.064    C 1637 0.097
  1643  O   2.072    C 1642 1.064    H 1652 0.853    C 1641 0.053    C 1640 0.052
  1644  H   0.948    N 1632 0.905
  1645  H   0.997    C 1633 0.955
  1646  H   0.996    C 1636 0.969
  1647  H   0.995    C 1636 0.962
  1648  H   0.999    C 1638 0.971
  1649  H   0.998    C 1639 0.972
  1650  H   0.995    C 1640 0.968
  1651  H   0.994    C 1641 0.966
  1652  H   0.868    O 1643 0.853
  1653  N   3.456    C 1634 1.283    C 1654 0.970    H 1662 0.928    O 1635 0.201
  1654  C   3.959    C 1657 0.972    N 1653 0.970    C 1655 0.949    H 1663 0.938
  1655  C   3.926    O 1656 1.681    O 1661 1.240    C 1654 0.949
  1656  O   1.960    C 1655 1.681    O 1661 0.184
  1657  C   3.984    C 1658 0.978    C 1654 0.972    H 1664 0.971    H 1665 0.968
  1658  C   3.994    C 1659 1.017    C 1660 1.011    C 1657 0.978    H 1666 0.967
  1659  C   3.995    C 1658 1.017    H 1667 0.982    H 1668 0.981    H 1669 0.981
  1660  C   3.995    C 1658 1.011    H 1671 0.985    H 1672 0.980    H 1670 0.980
  1661  O   2.255    C 1655 1.240    H 1673 0.801    O 1656 0.184
  1662  H   0.956    N 1653 0.928
  1663  H   0.990    C 1654 0.938
  1664  H   0.997    C 1657 0.971
  1665  H   0.995    C 1657 0.968
  1666  H   0.999    C 1658 0.967
  1667  H   0.998    C 1659 0.982
  1668  H   0.998    C 1659 0.981
  1669  H   0.998    C 1659 0.981
  1670  H   0.997    C 1660 0.980
  1671  H   0.998    C 1660 0.985
  1672  H   0.998    C 1660 0.980
  1673  H   0.832    O 1661 0.801
  1674  N   2.986    C 1675 1.020    H 1678 0.959    H 1948 0.952
  1675  C   3.983    N 1674 1.020    C 1676 0.972    H 1679 0.953    H 1680 0.949    O 1677 0.051
  1676  C   3.946    O 1677 1.603    N 1681 1.291    C 1675 0.972
  1677  O   1.939    C 1676 1.603    N 1681 0.184    C 1675 0.051
  1678  H   0.969    N 1674 0.959
  1679  H   0.994    C 1675 0.953
  1680  H   0.995    C 1675 0.949
  1681  N   3.471    C 1676 1.291    C 1682 0.988    H 1689 0.922    O 1677 0.184
  1682  C   3.960    N 1681 0.988    C 1685 0.966    H 1690 0.944    C 1683 0.933
  1683  C   3.949    O 1684 1.620    N 1700 1.314    C 1682 0.933
  1684  O   1.932    C 1683 1.620    N 1700 0.200
  1685  C   3.985    C 1686 0.990    H 1691 0.974    H 1692 0.974    C 1682 0.966
  1686  C   3.994    C 1688 1.009    C 1687 1.009    C 1685 0.990    H 1693 0.970
  1687  C   3.991    C 1686 1.009    H 1696 0.985    H 1695 0.985    H 1694 0.984
  1688  C   3.994    C 1686 1.009    H 1699 0.986    H 1697 0.983    H 1698 0.982
  1689  H   0.954    N 1681 0.922
  1690  H   0.993    C 1682 0.944
  1691  H   0.996    C 1685 0.974
  1692  H   0.996    C 1685 0.974
  1693  H   0.999    C 1686 0.970
  1694  H   0.997    C 1687 0.984
  1695  H   0.997    C 1687 0.985
  1696  H   0.998    C 1687 0.985
  1697  H   0.998    C 1688 0.983
  1698  H   0.999    C 1688 0.982
  1699  H   0.997    C 1688 0.986
  1700  N   3.476    C 1683 1.314    C 1701 0.979    H 1707 0.895    O 1684 0.200
  1701  C   3.962    C 1702 0.996    N 1700 0.979    H 1708 0.948    C 1704 0.921    O 1703 0.055
  1702  C   3.901    O 1703 1.884    C 1701 0.996    H 1949 0.951
  1703  O   2.051    C 1702 1.884    C 1701 0.055
  1704  C   3.958    C 1706 1.011    O 1705 0.991    H 1709 0.961    C 1701 0.921
  1705  O   1.926    C 1704 0.991    H 1710 0.855
  1706  C   3.989    C 1704 1.011    H 1711 0.980    H 1712 0.975    H 1713 0.971
  1707  H   0.946    N 1700 0.895
  1708  H   0.989    C 1701 0.948
  1709  H   0.999    C 1704 0.961
  1710  H   0.888    O 1705 0.855
  1711  H   0.997    C 1706 0.980
  1712  H   0.996    C 1706 0.975
  1713  H   0.994    C 1706 0.971
  1714  N   3.049    C 1715 1.019    C 1720 0.982    H 1913 0.957
  1715  C   3.990    N 1714 1.019    C 1716 0.991    H 1721 0.948    C 1718 0.937    O 1717 0.061
  1716  C   3.879    O 1717 1.857    C 1715 0.991    H 1914 0.950
  1717  O   2.046    C 1716 1.857    C 1715 0.061
  1718  C   3.989    C 1719 0.998    H 1722 0.982    H 1723 0.977    C 1715 0.937
  1719  C   3.993    C 1720 1.015    C 1718 0.998    H 1724 0.980    H 1725 0.975
  1720  C   3.979    C 1719 1.015    N 1714 0.982    H 1727 0.980    H 1726 0.974
  1721  H   0.998    C 1715 0.948
  1722  H   0.997    C 1718 0.982
  1723  H   0.997    C 1718 0.977
  1724  H   0.996    C 1719 0.980
  1725  H   0.995    C 1719 0.975
  1726  H   0.996    C 1720 0.974
  1727  H   0.998    C 1720 0.980
  1728  N   2.982    C 1729 1.014    H 1735 0.950    H 1915 0.945
  1729  C   3.987    N 1728 1.014    C 1730 0.975    H 1736 0.953    C 1732 0.944    O 1731 0.064
  1730  C   3.904    O 1731 1.905    C 1729 0.975    H 1916 0.957
  1731  O   2.053    C 1730 1.905    C 1729 0.064
  1732  C   3.966    O 1733 1.003    C 1734 0.997    H 1737 0.957    C 1729 0.944
  1733  O   1.961    C 1732 1.003    H 1738 0.848
  1734  C   3.993    C 1732 0.997    H 1740 0.983    H 1739 0.981    H 1741 0.976
  1735  H   0.966    N 1728 0.950
  1736  H   0.996    C 1729 0.953
  1737  H   0.995    C 1732 0.957
  1738  H   0.889    O 1733 0.848
  1739  H   0.998    C 1734 0.981
  1740  H   0.999    C 1734 0.983
  1741  H   0.996    C 1734 0.976
  1742  N   2.996    C 1743 1.017    H 1917 0.956    H 1754 0.954
  1743  C   3.985    N 1742 1.017    H 1755 0.966    C 1746 0.952    C 1744 0.931    O 1745 0.055
  1744  C   3.946    O 1745 1.664    N 1763 1.286    C 1743 0.931
  1745  O   1.973    C 1744 1.664    N 1763 0.199    C 1743 0.055
  1746  C   3.991    C 1747 1.010    H 1757 0.971    H 1756 0.971    C 1743 0.952
  1747  C   3.987    C 1748 1.446    C 1749 1.368    C 1746 1.010    C 1752 0.097
  1748  C   3.990    C 1747 1.446    C 1750 1.409    H 1758 0.969    C 1751 0.107
  1749  C   3.989    C 1751 1.494    C 1747 1.368    H 1759 0.965    C 1750 0.104
  1750  C   3.986    C 1752 1.421    C 1748 1.409    H 1760 0.968    C 1749 0.104
  1751  C   3.989    C 1749 1.494    C 1752 1.335    H 1761 0.963    C 1748 0.107
  1752  C   3.921    C 1750 1.421    C 1751 1.335    O 1753 1.026    C 1747 0.097
  1753  O   2.075    C 1752 1.026    H 1762 0.865
  1754  H   0.967    N 1742 0.954
  1755  H   0.999    C 1743 0.966
  1756  H   0.996    C 1746 0.971
  1757  H   0.996    C 1746 0.971
  1758  H   0.996    C 1748 0.969
  1759  H   0.997    C 1749 0.965
  1760  H   0.995    C 1750 0.968
  1761  H   0.999    C 1751 0.963
  1762  H   0.909    O 1753 0.865
  1763  N   3.454    C 1744 1.286    C 1764 0.976    H 1772 0.906    O 1745 0.199
  1764  C   3.963    N 1763 0.976    C 1767 0.970    C 1765 0.948    H 1773 0.940    O 1766 0.050
  1765  C   3.911    O 1766 1.668    O 1771 1.240    C 1764 0.948
  1766  O   1.945    C 1765 1.668    O 1771 0.182    C 1764 0.050
  1767  C   3.980    C 1768 0.976    H 1774 0.971    H 1775 0.970    C 1764 0.970
  1768  C   3.992    C 1769 1.017    C 1770 1.011    C 1767 0.976    H 1776 0.968
  1769  C   3.994    C 1768 1.017    H 1777 0.984    H 1778 0.984    H 1779 0.982
  1770  C   3.995    C 1768 1.011    H 1781 0.985    H 1782 0.983    H 1780 0.980
  1771  O   2.250    C 1765 1.240    H 1783 0.767    O 1766 0.182
  1772  H   0.954    N 1763 0.906
  1773  H   0.991    C 1764 0.940
  1774  H   0.997    C 1767 0.971
  1775  H   0.997    C 1767 0.970
  1776  H   0.999    C 1768 0.968
  1777  H   0.998    C 1769 0.984
  1778  H   0.998    C 1769 0.984
  1779  H   0.996    C 1769 0.982
  1780  H   0.998    C 1770 0.980
  1781  H   0.997    C 1770 0.985
  1782  H   0.997    C 1770 0.983
  1783  H   0.859    O 1771 0.767    O  356 0.061
  1784  N   2.991    C 1785 1.019    H 1918 0.951    H 1796 0.935
  1785  C   3.986    N 1784 1.019    H 1797 0.963    C 1786 0.955    C 1788 0.942
  1786  C   3.938    O 1787 1.588    N 1805 1.320    C 1785 0.955
  1787  O   1.929    C 1786 1.588    N 1805 0.189
  1788  C   3.995    C 1789 1.022    H 1799 0.970    H 1798 0.965    C 1785 0.942
  1789  C   3.988    C 1791 1.408    C 1790 1.392    C 1788 1.022    C 1794 0.093
  1790  C   3.992    C 1792 1.462    C 1789 1.392    H 1800 0.972    C 1793 0.104
  1791  C   3.990    C 1793 1.451    C 1789 1.408    H 1801 0.965    C 1792 0.106
  1792  C   3.991    C 1790 1.462    C 1794 1.356    H 1802 0.966    C 1791 0.106
  1793  C   3.986    C 1791 1.451    C 1794 1.366    H 1803 0.965    C 1790 0.104    O 1795 0.063
  1794  C   3.935    C 1793 1.366    C 1792 1.356    O 1795 1.078    C 1789 0.093
  1795  O   2.120    C 1794 1.078    H 1804 0.868    C 1793 0.063
  1796  H   0.967    N 1784 0.935
  1797  H   0.997    C 1785 0.963
  1798  H   0.995    C 1788 0.965
  1799  H   0.998    C 1788 0.970
  1800  H   0.999    C 1790 0.972
  1801  H   0.997    C 1791 0.965
  1802  H   0.998    C 1792 0.966
  1803  H   0.998    C 1793 0.965
  1804  H   0.902    O 1795 0.868
  1805  N   3.479    C 1786 1.320    C 1806 0.982    H 1817 0.902    O 1787 0.189
  1806  C   3.969    N 1805 0.982    C 1809 0.961    H 1818 0.954    C 1807 0.925    O 1808 0.055
  1807  C   3.949    O 1808 1.660    N 1826 1.291    C 1806 0.925
  1808  O   1.989    C 1807 1.660    N 1826 0.200    C 1806 0.055
  1809  C   3.984    C 1810 1.010    H 1819 0.967    H 1820 0.961    C 1806 0.961
  1810  C   3.987    C 1811 1.448    C 1812 1.367    C 1809 1.010    C 1815 0.097
  1811  C   3.989    C 1810 1.448    C 1813 1.409    H 1821 0.964    C 1814 0.107
  1812  C   3.989    C 1814 1.496    C 1810 1.367    H 1822 0.968    C 1813 0.104
  1813  C   3.988    C 1815 1.418    C 1811 1.409    H 1823 0.967    C 1812 0.104
  1814  C   3.990    C 1812 1.496    C 1815 1.332    H 1824 0.964    C 1811 0.107    O 1816 0.051
  1815  C   3.924    C 1813 1.418    C 1814 1.332    O 1816 1.035    C 1810 0.097
  1816  O   2.083    C 1815 1.035    H 1825 0.860    C 1814 0.051
  1817  H   0.944    N 1805 0.902
  1818  H   0.996    C 1806 0.954
  1819  H   0.993    C 1809 0.967
  1820  H   0.992    C 1809 0.961
  1821  H   0.996    C 1811 0.964
  1822  H   0.997    C 1812 0.968
  1823  H   0.996    C 1813 0.967
  1824  H   0.999    C 1814 0.964
  1825  H   0.905    O 1816 0.860
  1826  N   3.460    C 1807 1.291    C 1827 0.978    H 1835 0.903    O 1808 0.200
  1827  C   3.966    N 1826 0.978    C 1830 0.970    C 1828 0.948    H 1836 0.936    O 1829 0.050
  1828  C   3.913    O 1829 1.648    O 1834 1.257    C 1827 0.948
  1829  O   1.952    C 1828 1.648    O 1834 0.183    C 1827 0.050
  1830  C   3.982    C 1831 0.978    H 1837 0.971    C 1827 0.970    H 1838 0.970
  1831  C   3.993    C 1832 1.017    C 1833 1.011    C 1830 0.978    H 1839 0.966
  1832  C   3.994    C 1831 1.017    H 1840 0.982    H 1841 0.981    H 1842 0.980
  1833  C   3.995    C 1831 1.011    H 1844 0.986    H 1845 0.980    H 1843 0.975
  1834  O   2.263    C 1828 1.257    H 1846 0.759    O 1829 0.183
  1835  H   0.951    N 1826 0.903
  1836  H   0.992    C 1827 0.936
  1837  H   0.997    C 1830 0.971
  1838  H   0.997    C 1830 0.970
  1839  H   0.999    C 1831 0.966
  1840  H   0.998    C 1832 0.982
  1841  H   0.998    C 1832 0.981
  1842  H   0.997    C 1832 0.980
  1843  H   0.998    C 1833 0.975
  1844  H   0.998    C 1833 0.986
  1845  H   0.998    C 1833 0.980
  1846  H   0.853    O 1834 0.759    O 1542 0.063
  1847  N   2.998    C 1848 1.011    H 1859 0.958    H 1950 0.956
  1848  C   3.985    N 1847 1.011    H 1860 0.972    C 1849 0.966    C 1851 0.943    O 1850 0.058
  1849  C   3.899    O 1850 1.925    C 1848 0.966    H 1951 0.952
  1850  O   2.058    C 1849 1.925    C 1848 0.058
  1851  C   3.990    C 1852 1.008    H 1862 0.971    H 1861 0.969    C 1848 0.943
  1852  C   3.989    C 1853 1.448    C 1854 1.367    C 1851 1.008    C 1857 0.097
  1853  C   3.993    C 1852 1.448    C 1855 1.410    H 1863 0.971    C 1856 0.107
  1854  C   3.993    C 1856 1.500    C 1852 1.367    H 1864 0.970    C 1855 0.103
  1855  C   3.988    C 1857 1.419    C 1853 1.410    H 1865 0.968    C 1854 0.103    O 1858 0.052
  1856  C   3.989    C 1854 1.500    C 1857 1.329    H 1866 0.969    C 1853 0.107    O 1858 0.052
  1857  C   3.940    C 1855 1.419    C 1856 1.329    O 1858 1.058    C 1852 0.097
  1858  O   2.071    C 1857 1.058    H 1867 0.859    C 1855 0.052    C 1856 0.052
  1859  H   0.973    N 1847 0.958
  1860  H   0.998    C 1848 0.972
  1861  H   0.998    C 1851 0.969
  1862  H   0.997    C 1851 0.971
  1863  H   0.998    C 1853 0.971
  1864  H   0.999    C 1854 0.970
  1865  H   0.994    C 1855 0.968
  1866  H   0.997    C 1856 0.969
  1867  H   0.876    O 1858 0.859
  1868  N   2.996    C 1869 1.017    H 1952 0.955    H 1880 0.954
  1869  C   3.985    N 1868 1.017    H 1881 0.970    C 1872 0.951    C 1870 0.932    O 1871 0.055
  1870  C   3.946    O 1871 1.681    N 1889 1.266    C 1869 0.932
  1871  O   1.992    C 1870 1.681    N 1889 0.195    C 1869 0.055
  1872  C   3.990    C 1873 1.011    H 1883 0.970    H 1882 0.970    C 1869 0.951
  1873  C   3.987    C 1874 1.445    C 1875 1.368    C 1872 1.011    C 1878 0.097
  1874  C   3.989    C 1873 1.445    C 1876 1.410    H 1884 0.963    C 1877 0.107
  1875  C   3.990    C 1877 1.494    C 1873 1.368    H 1885 0.971    C 1876 0.104
  1876  C   3.986    C 1878 1.419    C 1874 1.410    H 1886 0.966    C 1875 0.104
  1877  C   3.989    C 1875 1.494    C 1878 1.335    H 1887 0.965    C 1874 0.107    O 1879 0.050
  1878  C   3.919    C 1876 1.419    C 1877 1.335    O 1879 1.026    C 1873 0.097
  1879  O   2.076    C 1878 1.026    H 1888 0.865    C 1877 0.050
  1880  H   0.968    N 1868 0.954
  1881  H   0.999    C 1869 0.970
  1882  H   0.995    C 1872 0.970
  1883  H   0.995    C 1872 0.970
  1884  H   0.995    C 1874 0.963
  1885  H   0.998    C 1875 0.971
  1886  H   0.995    C 1876 0.966
  1887  H   0.999    C 1877 0.965
  1888  H   0.909    O 1879 0.865
  1889  N   3.443    C 1870 1.266    C 1890 0.975    H 1898 0.932    O 1871 0.195
  1890  C   3.962    N 1889 0.975    C 1893 0.970    C 1891 0.948    H 1899 0.933    O 1892 0.051
  1891  C   3.909    O 1892 1.651    O 1897 1.249    C 1890 0.948
  1892  O   1.953    C 1891 1.651    O 1897 0.182    C 1890 0.051
  1893  C   3.980    C 1894 0.976    H 1900 0.970    C 1890 0.970    H 1901 0.969
  1894  C   3.991    C 1895 1.017    C 1896 1.011    C 1893 0.976    H 1902 0.968
  1895  C   3.993    C 1894 1.017    H 1903 0.984    H 1904 0.984    H 1905 0.981
  1896  C   3.994    C 1894 1.011    H 1907 0.985    H 1908 0.983    H 1906 0.975
  1897  O   2.261    C 1891 1.249    H 1909 0.767    O 1892 0.182
  1898  H   0.960    N 1889 0.932
  1899  H   0.989    C 1890 0.933
  1900  H   0.997    C 1893 0.970
  1901  H   0.997    C 1893 0.969
  1902  H   0.998    C 1894 0.968
  1903  H   0.998    C 1895 0.984
  1904  H   0.998    C 1895 0.984
  1905  H   0.996    C 1895 0.981
  1906  H   0.998    C 1896 0.975
  1907  H   0.998    C 1896 0.985
  1908  H   0.996    C 1896 0.983
  1909  H   0.858    O 1897 0.767    O 1157 0.060
  1910  H   0.993    C  253 0.948
  1911  H   0.968    N  270 0.952
  1912  H   0.993    C  447 0.951
  1913  H   0.972    N 1714 0.957
  1914  H   0.993    C 1716 0.950
  1915  H   0.961    N 1728 0.945
  1916  H   0.998    C 1730 0.957
  1917  H   0.966    N 1742 0.956
  1918  H   0.964    N 1784 0.951
  1919  H   0.990    C  762 0.950
  1920  H   0.991    C  782 0.952
  1921  H   0.990    C  822 0.947
  1922  H   0.969    N  840 0.955
  1923  H   0.996    C  842 0.956
  1924  H   0.972    N  855 0.959
  1925  H   0.990    C  905 0.952
  1926  H   0.967    N  913 0.955
  1927  H   0.989    C  952 0.951
  1928  H   0.968    N  961 0.956
  1929  H   0.993    C  978 0.952
  1930  H   0.958    N  983 0.944
  1931  H   0.994    C 1025 0.952
  1932  H   0.973    N 1040 0.956
  1933  H   0.992    C 1056 0.950
  1934  H   0.969    N 1064 0.952
  1935  H   0.991    C 1227 0.953
  1936  H   0.971    N 1246 0.952
  1937  H   0.969    N 1267 0.958
  1938  H   0.991    C 1302 0.947
  1939  H   0.973    N 1320 0.960
  1940  H   0.996    C 1322 0.954
  1941  H   0.968    N 1334 0.948
  1942  H   0.993    C 1346 0.954
  1943  H   0.958    N 1358 0.935
  1944  H   0.994    C 1359 0.953
  1945  H   0.965    N 1379 0.954
  1946  H   0.991    C 1439 0.953
  1947  H   0.966    N 1456 0.952
  1948  H   0.969    N 1674 0.952
  1949  H   0.990    C 1702 0.951
  1950  H   0.967    N 1847 0.956
  1951  H   0.995    C 1849 0.952
  1952  H   0.965    N 1868 0.955
 
molecular dipole:
                 x           y           z       tot (Debye)
 q only:     -105.170      40.661    -196.809
   full:     -104.124      37.195    -199.704     580.216
molecular quadrupole (traceless):
                xx          xy          yy          xz          yz          zz
 q only:      633.595     134.576    5463.003   -4984.566    2738.166   -6096.598
  q+dip:      794.039     157.526    5475.626   -5048.609    2541.616   -6269.665
   full:      803.195     151.150    5450.963   -5039.564    2544.156   -6254.159
speedup  8.00
cpu  time for grad   42 m 59.3 s
wall time for grad    5 m 22.4 s

SCC energy    :   -3156.9870434
rep           :      39.7822625
ES            :      11.3734348
AES           :      -0.4819214
AXC           :       0.6353905
disp          :      -2.9538473
XB            :       0.0000000
fix           :       0.0000000
Gborn         :       0.0000000
Gsasa         :       0.0000000
Ghb           :       0.0000000
Gshift        :       0.0000000
Gsolv         :      -2.8468576    -1786.43
Etot ala COSMO:   -3156.9870434
grad norm     :       1.9801898
total E       :   -3116.7769593
atomizationE  :     535.9991460   336344.54
(atE without considering molecular charge,
 total energy contains solvation terms)
H-L gap (eV)  :          0.2608

------------------------------------------------------------------------
 * finished run on 2019/02/22 at 14:26:01.750     
------------------------------------------------------------------------
 total:
 * wall-time:     0 d,  0 h,  5 min, 32.875 sec
 *  cpu-time:     0 d,  0 h, 43 min, 26.821 sec
 * ratio c/w:     7.831 speedup
 SCF:
 * wall-time:     0 d,  0 h,  5 min, 26.572 sec
 *  cpu-time:     0 d,  0 h, 43 min, 15.679 sec
 * ratio c/w:     7.948 speedup

