      -----------------------------------------------------------      
     |                   =====================                   |     
     |                           x T B                           |     
     |                   =====================                   |     
     |                         S. Grimme                         |     
     |          Mulliken Center for Theoretical Chemistry        |     
     |                    University of Bonn                     |     
     |                 Version 6.0.1 (SAW181210)                 |     
      -----------------------------------------------------------      

   This program is distributed in the hope that it will be useful,
   but WITHOUT ANY WARRANTY; without even the implied warranty of
   MERCHANTABILITY or FITNESS FOR A PARTICULAR PURPOSE.
   
   FOR NON-COMMERCIAL, ACADEMIA USE ONLY.
   
   Cite this work as:
   S. Grimme, C. Bannwarth, P. Shushkov, J. Comput. Theory Chem., 2017,
   13, 1989-2009.
   C. Bannwarth, S. Ehlert and S. Grimme., ChemRxiv, 2018, preprint.
   http://doi.org/10.26434/chemrxiv.7246238.v1
   
   for sTDA-xTB:
   S. Grimme and C. Bannwarth, J. Chem. Phys., 2016, 145, 054103.
   
   in the mass-spec context:
   V. Asgeirsson, C. Bauer and S. Grimme, Chem. Sci., 2017, 8, 4879.
   
   if GBSA is used:
   P. Shushkov, F. März and S. Grimme, unpublished.
   
   for ANC optimizer:
   S. Grimme, unpublished.
   Rational Function algorithm used in ANCopt:
   F. Eckert, P. Pulay, H.-J. Werner, J. Comput. Chem., 1997, 18, 1473.
   
   with help from (in alphabetical order)
   C. Bannwarth, F. Bohle, G. Brandenburg, E. Caldeweyher, M. Checinski,
   S. Dohm, S. Ehlert, S. Ehrlich, F. März, H. Neugebauer, J. Pisarek,
   P. Pracht, P. Shushkov, and S. Spicher.
   
 * started run on 2019/02/16 at 08:11:05.978     
========================================================================
 # omp threads = 12
========================================================================
number of atoms            : 111
number of electrons        : 300
charge                     : 0
spin                       : .0
first test random number   : .9707

########################################################################
# WARNING! Please study the warnings concerning your input carefully
#  - Process number higher than OMP_NUM_THREADS, I hope you know what you are doing.
########################################################################

           ------------------------------------------------- 
          |                 G F N 2 - x T B                 |
          | Geometry, Frequencies, Noncovalent interactions |
          |            JCTC 2018 parametrisation            |
           ------------------------------------------------- 
 
      method parameters     
 k(s)        :  1.8500
 k(p)        :  2.2300
 k(d)        :  2.2300
 k(f)        :  2.0000
 kEN (H0ij)  : -2.0000
 D4 a1       :  0.5200
 D4 a2       :  5.0000
 D4 s6       :  1.0000
 D4 s8       :  2.7000
 D4 s9       :  5.0000
 alphaj      :  2.0000

 Solvent             : h2o
 Using internal parameter file: .param_gbsa2_h2o
 Gsolv ref. state (COSMO-RS): gsolv [1 M gas/solution]
 temperature (mdtemp)       :    298.150000000000     
 dielectric constant        :    80.2000000000000     
 rho                        :    1.00000000000000     
 mass                       :    18.0000000000000     
 surface tension            :    15.5689454083859     
 probe radius               :   0.975313790000000     
 vdW radii scaling          :    1.00000000000000     
 Gshift (Eh)                :   1.857443126794793E-003
 c1                         :    1.55243817000000     
 soset                      :   0.130326360000000     
 HB correction              :  T

            Z     q(EN)     CN     RAES       Cart. coordinates
     1  N   5.0   -0.21    3.19    1.95     9.40011    31.84216     1.78350
     2  C   4.0    0.03    4.23    4.06    11.10708    30.75534    -0.11416
     3  C   4.0    0.09    3.25    3.04    11.30735    27.93082     0.18699
     4  O   6.0   -0.26    1.10    1.80    11.24680    26.35054    -1.59760
     5  C   4.0   -0.03    4.38    4.35    13.72494    31.85766     0.15139
     6  C   4.0    0.16    3.25    3.04    15.60892    31.10892    -1.84831
     7  O   6.0   -0.29    1.28    1.80    17.61420    30.06141    -1.29887
     8  N   5.0   -0.17    3.25    1.97    14.83772    31.57269    -4.09288
     9  H   1.0    0.08    1.02    1.43    10.11366    33.08325     3.06118
    10  H   1.0    0.05    1.05    1.44    10.26695    31.10058    -1.97983
    11  H   1.0    0.04    1.03    1.43    13.54953    33.92176     0.14511
    12  H   1.0    0.05    1.03    1.43    14.48129    31.32009     1.99872
    13  H   1.0    0.10    1.03    1.43    15.72888    30.84485    -5.63871
    14  H   1.0    0.08    1.05    1.44    13.18127    32.48083    -4.34734
    15  O   6.0   -0.28    1.93    1.82    24.89827    29.36648     1.46451
    16  H   1.0    0.16    1.00    1.43    26.10690    30.32862     2.43998
    17  H   1.0    0.16    1.01    1.43    24.29852    30.46928     0.14075
    18  O   6.0   -0.29    1.93    1.82    19.23461    28.79774     3.37095
    19  H   1.0    0.16    1.03    1.43    18.86932    29.36796     1.66175
    20  H   1.0    0.14    0.97    1.43    19.40137    27.00371     3.20216
    21  O   6.0   -0.28    1.93    1.82    29.36648    24.89827    -1.46451
    22  H   1.0    0.16    1.00    1.43    30.32862    26.10690    -2.43998
    23  H   1.0    0.16    1.01    1.43    30.46928    24.29852    -0.14075
    24  O   6.0   -0.27    1.92    1.82    26.91338    23.24165     3.81844
    25  H   1.0    0.15    0.98    1.43    27.23102    23.24270     2.03765
    26  H   1.0    0.13    0.96    1.43    26.09595    21.63367     4.20934
    27  O   6.0   -0.26    1.92    1.82    23.24165    26.91338    -3.81844
    28  H   1.0    0.15    0.98    1.43    23.24270    27.23102    -2.03765
    29  H   1.0    0.14    0.96    1.43    21.63367    26.09595    -4.20934
    30  N   5.0   -0.19    3.21    1.96    35.84992    26.77711     0.37903
    31  C   4.0    0.03    4.26    4.13    34.79518    27.32027     2.86750
    32  C   4.0    0.08    3.20    3.04    33.76719    24.84794     4.03810
    33  O   6.0   -0.28    1.18    1.80    32.22020    23.62879     2.83565
    34  C   4.0   -0.03    4.31    4.21    32.81117    29.37148     2.64255
    35  C   4.0   -0.04    4.29    4.17    32.08471    30.12649     5.28115
    36  C   4.0    0.16    3.24    3.04    30.41934    32.49328     5.14356
    37  O   6.0   -0.32    1.29    1.80    28.44145    32.48441     4.02600
    38  N   5.0   -0.19    3.20    1.96    31.22832    34.47951     6.37107
    39  H   1.0    0.11    1.04    1.43    34.58066    26.88115    -1.05914
    40  H   1.0    0.04    1.05    1.44    36.37007    27.98562     4.04166
    41  H   1.0    0.05    1.03    1.43    33.61249    30.96060     1.60355
    42  H   1.0    0.07    1.03    1.43    31.16529    28.66171     1.62356
    43  H   1.0    0.05    1.04    1.43    30.96342    28.63346     6.15464
    44  H   1.0    0.04    1.03    1.43    33.74195    30.49634     6.44463
    45  H   1.0    0.08    1.03    1.43    32.77716    34.43616     7.49902
    46  H   1.0    0.09    1.03    1.43    30.12969    36.05136     6.49528
    47  N   5.0   -0.20    3.20    1.96    26.87106    41.18446     3.59523
    48  C   4.0    0.03    4.34    4.28    25.44699    38.95135     2.79129
    49  C   4.0    0.15    3.44    3.09    25.99985    38.21770     0.14642
    50  O   6.0   -0.29    1.27    1.80    25.87528    39.71921    -1.56432
    51  C   4.0   -0.04    4.41    4.39    22.58313    39.52081     2.94021
    52  C   4.0   -0.02    4.20    4.01    20.95843    37.24086     2.46642
    53  C   4.0   -0.07    4.17    3.93    21.49530    35.25235     4.43398
    54  C   4.0   -0.07    4.11    3.83    18.13410    37.98242     2.79307
    55  H   1.0    0.10    1.02    1.43    26.61793    42.78063     2.56852
    56  H   1.0    0.04    1.06    1.44    25.95978    37.45044     4.11160
    57  H   1.0    0.04    1.03    1.43    22.18174    40.27552     4.81692
    58  H   1.0    0.05    1.03    1.43    22.18174    41.00386     1.55777
    59  H   1.0    0.06    1.05    1.44    21.25846    36.49346     0.56485
    60  H   1.0    0.06    1.00    1.43    20.23183    33.64864     4.17517
    61  H   1.0    0.05    1.00    1.43    23.40493    34.50721     4.31589
    62  H   1.0    0.04    1.00    1.43    21.18962    36.02405     6.31334
    63  H   1.0    0.04    1.00    1.43    16.92400    36.35291     2.51006
    64  H   1.0    0.04    1.00    1.43    17.84179    38.71448     4.68797
    65  H   1.0    0.04    1.00    1.43    17.60525    39.43465     1.43683
    66  N   5.0   -0.13    3.46    2.05    26.77711    35.84992    -0.37903
    67  C   4.0    0.04    4.34    4.26    27.32027    34.79518    -2.86750
    68  C   4.0    0.09    3.20    3.04    24.84794    33.76719    -4.03810
    69  O   6.0   -0.28    1.18    1.80    23.62879    32.22020    -2.83565
    70  C   4.0   -0.03    4.31    4.21    29.37148    32.81117    -2.64255
    71  C   4.0   -0.03    4.28    4.16    30.12649    32.08471    -5.28115
    72  C   4.0    0.16    3.24    3.04    32.49328    30.41934    -5.14356
    73  O   6.0   -0.31    1.29    1.80    32.48441    28.44145    -4.02600
    74  N   5.0   -0.18    3.20    1.96    34.47951    31.22832    -6.37107
    75  H   1.0    0.10    1.08    1.44    26.88115    34.58066     1.05914
    76  H   1.0    0.05    1.06    1.44    27.98562    36.37007    -4.04166
    77  H   1.0    0.05    1.03    1.43    30.96060    33.61249    -1.60355
    78  H   1.0    0.07    1.03    1.43    28.66171    31.16529    -1.62356
    79  H   1.0    0.06    1.03    1.43    28.63346    30.96342    -6.15464
    80  H   1.0    0.04    1.03    1.43    30.49634    33.74195    -6.44463
    81  H   1.0    0.08    1.03    1.43    34.43616    32.77716    -7.49902
    82  H   1.0    0.10    1.03    1.43    36.05136    30.12969    -6.49528
    83  N   5.0   -0.19    3.21    1.96    32.02813    30.06210    17.35437
    84  C   4.0    0.03    4.20    4.00    32.73959    29.62042    14.75987
    85  C   4.0    0.08    3.24    3.04    35.56771    30.20239    14.48529
    86  O   6.0   -0.27    1.12    1.80    36.63705    31.90105    15.67344
    87  H   1.0    0.10    1.03    1.43    32.09052    31.89874    17.90301
    88  H   1.0    0.04    1.05    1.44    32.44746    27.61876    14.34509
    89  C   4.0   -0.04    4.32    4.24    31.37262    31.36866    12.86084
    90  C   4.0   -0.02    3.52    3.12    29.11605    30.36371    11.49058
    91  C   4.0   -0.04    3.48    3.11    28.93825    28.01331    10.34328
    92  C   4.0   -0.04    3.51    3.12    27.08108    31.97205    11.19166
    93  C   4.0   -0.02    3.45    3.09    26.73105    27.20297     9.22932
    94  C   4.0   -0.04    3.43    3.09    24.87248    31.21797    10.00843
    95  C   4.0    0.08    3.43    3.09    24.61425    28.76514     9.13845
    96  O   6.0   -0.23    2.10    1.84    22.36859    27.80379     8.26862
    97  H   1.0    0.05    1.04    1.43    30.83995    33.08081    13.87635
    98  H   1.0    0.04    1.04    1.43    32.77794    31.91976    11.44553
    99  H   1.0    0.05    1.03    1.43    30.56259    26.78680    10.31437
   100  H   1.0    0.05    1.04    1.43    27.29047    33.84264    11.96249
   101  H   1.0    0.07    1.03    1.43    26.63864    25.39147     8.29887
   102  H   1.0    0.05    1.03    1.43    23.30849    32.50922     9.78494
   103  H   1.0    0.13    1.03    1.43    21.36649    29.08239     7.44552
   104  H   1.0    0.10    1.07    1.44     8.15368    32.69645     1.00301
   105  H   1.0    0.06    1.05    1.44    11.50585    27.17580     1.90793
   106  H   1.0    0.10    1.07    1.44    37.08661    27.89158     0.03100
   107  H   1.0    0.05    1.04    1.43    34.37084    24.28503     5.73804
   108  H   1.0    0.09    1.07    1.44    26.44050    41.58851     5.19020
   109  H   1.0    0.06    1.04    1.43    24.28503    34.37084    -5.73804
   110  H   1.0    0.09    1.07    1.44    30.43212    29.53006    17.60384
   111  H   1.0    0.05    1.05    1.44    36.63131    29.18398    13.30095

  Z AO/shell   Hii/eV     exponent
  1     Wed Apr 25 08:07:45 CEST 2018   EN: 2.200 GM2: 0.406  GM3: 0.0800  RAES: 1.40
     1s    -10.707211    1.230000
  6     Wed Apr 25 08:07:45 CEST 2018   EN: 2.550 GM2: 0.538  GM3: 0.1500  RAES: 3.00
     2s    -13.970922    2.096432
     2p    -10.063292    1.800000
  7     Wed Apr 25 08:07:45 CEST 2018   EN: 3.040 GM2: 0.461  GM3:-0.0640  RAES: 1.90
     2s    -16.686243    2.339881
     2p    -12.523956    2.014332
  8     Wed Apr 25 08:07:45 CEST 2018   EN: 3.440 GM2: 0.452  GM3:-0.0517  RAES: 1.80
     2s    -20.229985    2.439742
     2p    -15.503117    2.137023
 no old-style atom pair restraining (fixing) potential

molecular fragmentation (1/2 indicates fragments):
111111111111112222222222222222222222222222222222222222222222222222222222
222222222222222222222222222222211222222
# atoms in fragment 1/2:    16    95
 fragment masses (1/2) :      116.12      628.72
CMA distance (Bohr)    :  15.819
constraining FC (au)   :  0.0500
           ------------------------------------------------- 
          |        Self-Consistent Charge Iterations        |
           ------------------------------------------------- 

 Ncao       : 264
 Nao        : 264
 Nshell     : 162
 Nel        : 300
 T(el)      :   500.0
 intcut     :    35.0
 scfconv/Eh :  0.100E-06
   qconv/e  :  0.100E-04
 intneglect :  0.100E-08
 broydamp   :      0.400
 iter      E             dE          RMSdq      gap      omega  full diag
   1   -174.4471979 -0.174447E+03  0.508E+00    3.03       0.0  T
   2   -174.8990731 -0.451875E+00  0.239E+00    1.73       1.0  T
   3   -174.9315175 -0.324444E-01  0.132E+00    2.10       1.0  T
   4   -174.9691846 -0.376671E-01  0.312E-01    1.60       1.0  T
   5   -174.9706514 -0.146679E-02  0.131E-01    1.75       1.0  T
   6   -174.9711496 -0.498239E-03  0.418E-02    1.69       1.0  T
   7   -174.9711906 -0.409174E-04  0.208E-02    1.68       1.0  T
   8   -174.9711974 -0.686404E-05  0.100E-02    1.68       1.0  T
   9   -174.9711994 -0.200766E-05  0.350E-03    1.68       2.7  T
  10   -174.9711999 -0.468356E-06  0.131E-03    1.68       7.3  T
  11   -174.9711999 -0.242246E-07  0.626E-04    1.68      15.2  T
  12   -174.9711999 -0.794864E-08  0.282E-04    1.68      33.7  T
  13   -174.9711999 -0.277180E-08  0.971E-05    1.68      97.8  T
  14   -174.9711999 -0.138982E-09  0.503E-05    1.68     188.6  T
speedup 11.96
cpu  time for SCC    1.87 s
wall time for SCC    0.16 s

   *** convergence criteria satisfied after 14 iterations ***

          eigenvalues
 #    :         138        139        140        141        142        143        144        145
 occ. :        2.000      2.000      2.000      2.000      2.000      2.000      2.000      2.000
 eps  :       -11.141    -11.135    -11.105    -11.078    -11.047    -10.964    -10.883    -10.777
 #    :         146        147        148        149        150        151        152        153
 occ. :        2.000      2.000      2.000      2.000      2.000      0.000      0.000      0.000
 eps  :       -10.332    -10.324    -10.079     -9.954     -9.820     -8.141     -7.984     -7.738
 #    :         154        155        156        157        158        159        160        161
 occ. :        0.000      0.000      0.000      0.000      0.000      0.000      0.000      0.000
 eps  :        -7.690     -5.965     -5.912     -5.812     -5.794     -5.689     -5.671     -2.427


   #   Z            q   n(s)   n(p)   n(d)      C6AA      α(0)
   1   7 N     -0.392  1.318  4.074  0.000    30.143     8.154
   2   6 C      0.045  1.050  2.905  0.000    19.835     6.344
   3   6 C      0.196  1.097  2.707  0.000    23.822     7.994
   4   8 O     -0.399  1.780  4.619  0.000    21.658     6.240
   5   6 C     -0.104  1.059  3.045  0.000    22.463     6.743
   6   6 C      0.292  1.021  2.687  0.000    22.045     7.688
   7   8 O     -0.508  1.753  4.755  0.000    23.969     6.564
   8   7 N     -0.260  1.255  4.005  0.000    26.752     7.682
   9   1 H      0.178  0.822  0.000  0.000     1.226     1.734
  10   1 H      0.064  0.936  0.000  0.000     2.155     2.296
  11   1 H      0.084  0.916  0.000  0.000     1.942     2.180
  12   1 H      0.081  0.919  0.000  0.000     1.973     2.197
  13   1 H      0.242  0.758  0.000  0.000     0.916     1.499
  14   1 H      0.239  0.761  0.000  0.000     0.929     1.510
  15   8 O     -0.642  1.761  4.881  0.000    26.211     6.910
  16   1 H      0.299  0.701  0.000  0.000     0.724     1.337
  17   1 H      0.306  0.694  0.000  0.000     0.704     1.318
  18   8 O     -0.648  1.757  4.891  0.000    26.371     6.931
  19   1 H      0.310  0.690  0.000  0.000     0.690     1.305
  20   1 H      0.304  0.696  0.000  0.000     0.708     1.321
  21   8 O     -0.660  1.765  4.895  0.000    26.674     6.971
  22   1 H      0.308  0.692  0.000  0.000     0.697     1.312
  23   1 H      0.314  0.686  0.000  0.000     0.681     1.296
  24   8 O     -0.633  1.765  4.867  0.000    25.987     6.880
  25   1 H      0.311  0.689  0.000  0.000     0.690     1.304
  26   1 H      0.320  0.680  0.000  0.000     0.663     1.279
  27   8 O     -0.633  1.764  4.869  0.000    25.989     6.880
  28   1 H      0.311  0.689  0.000  0.000     0.689     1.304
  29   1 H      0.320  0.680  0.000  0.000     0.665     1.281
  30   7 N     -0.396  1.324  4.072  0.000    30.267     8.171
  31   6 C      0.036  1.059  2.905  0.000    19.976     6.365
  32   6 C      0.200  1.090  2.710  0.000    23.749     7.981
  33   8 O     -0.343  1.754  4.589  0.000    20.570     6.081
  34   6 C     -0.056  1.048  3.008  0.000    21.567     6.610
  35   6 C     -0.104  1.058  3.046  0.000    22.471     6.747
  36   6 C      0.296  1.031  2.673  0.000    21.986     7.678
  37   8 O     -0.498  1.730  4.768  0.000    23.733     6.532
  38   7 N     -0.266  1.260  4.006  0.000    26.891     7.702
  39   1 H      0.175  0.825  0.000  0.000     1.243     1.746
  40   1 H      0.049  0.951  0.000  0.000     2.335     2.390
  41   1 H      0.049  0.951  0.000  0.000     2.338     2.391
  42   1 H      0.067  0.933  0.000  0.000     2.114     2.274
  43   1 H      0.067  0.933  0.000  0.000     2.118     2.276
  44   1 H      0.054  0.946  0.000  0.000     2.265     2.353
  45   1 H      0.223  0.777  0.000  0.000     0.996     1.563
  46   1 H      0.225  0.775  0.000  0.000     0.988     1.557
  47   7 N     -0.392  1.322  4.070  0.000    30.142     8.154
  48   6 C      0.030  1.055  2.915  0.000    20.076     6.382
  49   6 C      0.282  1.040  2.678  0.000    22.224     7.720
  50   8 O     -0.497  1.736  4.761  0.000    23.716     6.529
  51   6 C     -0.067  1.059  3.008  0.000    21.764     6.639
  52   6 C     -0.006  1.051  2.955  0.000    20.649     6.463
  53   6 C     -0.116  1.038  3.078  0.000    22.753     6.798
  54   6 C     -0.116  1.046  3.070  0.000    22.779     6.804
  55   1 H      0.157  0.843  0.000  0.000     1.354     1.823
  56   1 H      0.048  0.952  0.000  0.000     2.350     2.397
  57   1 H      0.044  0.956  0.000  0.000     2.393     2.419
  58   1 H      0.035  0.965  0.000  0.000     2.511     2.478
  59   1 H      0.011  0.989  0.000  0.000     2.868     2.648
  60   1 H      0.048  0.952  0.000  0.000     2.340     2.392
  61   1 H      0.037  0.963  0.000  0.000     2.495     2.470
  62   1 H      0.041  0.959  0.000  0.000     2.433     2.439
  63   1 H      0.039  0.961  0.000  0.000     2.458     2.452
  64   1 H      0.047  0.953  0.000  0.000     2.361     2.403
  65   1 H      0.034  0.966  0.000  0.000     2.525     2.485
  66   7 N     -0.190  1.250  3.940  0.000    25.117     7.443
  67   6 C      0.029  1.062  2.909  0.000    20.094     6.383
  68   6 C      0.198  1.088  2.714  0.000    23.773     7.985
  69   8 O     -0.331  1.753  4.578  0.000    20.354     6.049
  70   6 C     -0.058  1.047  3.011  0.000    21.607     6.616
  71   6 C     -0.104  1.057  3.047  0.000    22.468     6.746
  72   6 C      0.298  1.028  2.674  0.000    21.943     7.670
  73   8 O     -0.494  1.733  4.761  0.000    23.655     6.521
  74   7 N     -0.278  1.266  4.013  0.000    27.187     7.744
  75   1 H      0.208  0.792  0.000  0.000     1.066     1.617
  76   1 H      0.079  0.921  0.000  0.000     1.991     2.206
  77   1 H      0.064  0.936  0.000  0.000     2.149     2.293
  78   1 H      0.079  0.921  0.000  0.000     1.988     2.205
  79   1 H      0.069  0.931  0.000  0.000     2.097     2.265
  80   1 H      0.064  0.936  0.000  0.000     2.156     2.296
  81   1 H      0.234  0.766  0.000  0.000     0.950     1.527
  82   1 H      0.236  0.764  0.000  0.000     0.939     1.518
  83   7 N     -0.383  1.324  4.059  0.000    29.909     8.122
  84   6 C      0.039  1.057  2.905  0.000    19.946     6.362
  85   6 C      0.195  1.092  2.712  0.000    23.830     7.995
  86   8 O     -0.378  1.764  4.614  0.000    21.243     6.179
  87   1 H      0.165  0.835  0.000  0.000     1.304     1.789
  88   1 H      0.065  0.935  0.000  0.000     2.145     2.290
  89   6 C     -0.072  1.059  3.013  0.000    21.857     6.654
  90   6 C     -0.005  1.073  2.931  0.000    28.141     8.701
  91   6 C     -0.046  1.076  2.969  0.000    29.133     8.852
  92   6 C     -0.049  1.081  2.968  0.000    29.216     8.865
  93   6 C     -0.055  1.078  2.977  0.000    29.365     8.886
  94   6 C     -0.068  1.078  2.991  0.000    29.704     8.938
  95   6 C      0.149  1.045  2.806  0.000    24.759     8.155
  96   8 O     -0.434  1.714  4.721  0.000    21.523     6.263
  97   1 H      0.065  0.935  0.000  0.000     2.144     2.290
  98   1 H      0.047  0.953  0.000  0.000     2.361     2.403
  99   1 H      0.039  0.961  0.000  0.000     2.465     2.455
 100   1 H      0.045  0.955  0.000  0.000     2.387     2.416
 101   1 H      0.054  0.946  0.000  0.000     2.275     2.359
 102   1 H      0.040  0.960  0.000  0.000     2.443     2.444
 103   1 H      0.332  0.668  0.000  0.000     0.633     1.250
 104   1 H      0.194  0.806  0.000  0.000     1.138     1.671
 105   1 H      0.087  0.913  0.000  0.000     1.909     2.161
 106   1 H      0.186  0.814  0.000  0.000     1.181     1.702
 107   1 H      0.076  0.924  0.000  0.000     2.016     2.220
 108   1 H      0.189  0.811  0.000  0.000     1.164     1.690
 109   1 H      0.083  0.917  0.000  0.000     1.951     2.184
 110   1 H      0.187  0.813  0.000  0.000     1.173     1.697
 111   1 H      0.070  0.930  0.000  0.000     2.081     2.256

 Mol. C6AA /au·bohr⁶  :     105642.099224
 Mol. C8AA /au·bohr⁸  :    2296819.171402
 Mol. α(0) /au        :        487.098069

 
 Wiberg/Mayer (AO) data. WBOs > 0.1 written file <wbo>
 largest (>0.05) Wiberg bond orders for each atom
           total WBO             WBO to atom ...
     1  N   2.993    C    2 1.007    H  104 0.952    H    9 0.951
     2  C   3.987    N    1 1.007    C    3 0.989    C    5 0.957    H   10 0.953
     3  C   3.887    O    4 1.874    C    2 0.989    H  105 0.956
     4  O   2.002    C    3 1.874
     5  C   3.990    H   12 0.968    C    6 0.960    C    2 0.957    H   11 0.947    O    7 0.051
     6  C   3.950    O    7 1.588    N    8 1.373    C    5 0.960
     7  O   1.956    C    6 1.588    N    8 0.198    C    5 0.051
     8  N   3.440    C    6 1.373    H   14 0.917    H   13 0.914    O    7 0.198
     9  H   0.968    N    1 0.951
    10  H   0.996    C    2 0.953
    11  H   0.993    C    5 0.947
    12  H   0.994    C    5 0.968
    13  H   0.941    N    8 0.914
    14  H   0.943    N    8 0.917
    15  O   1.798    H   16 0.878    H   17 0.872
    16  H   0.911    O   15 0.878
    17  H   0.907    O   15 0.872
    18  O   1.791    H   20 0.906    H   19 0.851
    19  H   0.904    O   18 0.851
    20  H   0.907    O   18 0.906
    21  O   1.786    H   22 0.873    H   23 0.866
    22  H   0.905    O   21 0.873
    23  H   0.902    O   21 0.866
    24  O   1.802    H   26 0.897    H   25 0.896
    25  H   0.903    O   24 0.896
    26  H   0.897    O   24 0.897
    27  O   1.801    H   29 0.898    H   28 0.896
    28  H   0.903    O   27 0.896
    29  H   0.898    O   27 0.898
    30  N   2.989    C   31 1.008    H  106 0.953    H   39 0.939
    31  C   3.987    N   30 1.008    C   34 0.971    H   40 0.966    C   32 0.964    O   33 0.056
    32  C   3.890    O   33 1.913    C   31 0.964    H  107 0.954
    33  O   2.085    C   32 1.913    C   31 0.056
    34  C   3.992    C   35 0.997    C   31 0.971    H   41 0.970    H   42 0.967
    35  C   3.994    C   34 0.997    H   44 0.972    C   36 0.957    H   43 0.950    O   37 0.056
    36  C   3.942    O   37 1.613    N   38 1.335    C   35 0.957
    37  O   1.969    C   36 1.613    N   38 0.192    C   35 0.056
    38  N   3.415    C   36 1.335    H   45 0.926    H   46 0.922    O   37 0.192
    39  H   0.969    N   30 0.939
    40  H   0.997    C   31 0.966
    41  H   0.997    C   34 0.970
    42  H   0.995    C   34 0.967
    43  H   0.995    C   35 0.950
    44  H   0.997    C   35 0.972
    45  H   0.950    N   38 0.926
    46  H   0.949    N   38 0.922
    47  N   2.987    C   48 1.009    H   55 0.959    H  108 0.951
    48  C   3.986    N   47 1.009    C   49 0.969    C   51 0.957    H   56 0.956
    49  C   3.944    O   50 1.641    N   66 1.267    C   48 0.969
    50  O   1.945    C   49 1.641    N   66 0.193
    51  C   3.995    C   52 1.004    H   58 0.974    H   57 0.971    C   48 0.957
    52  C   3.997    C   53 1.013    C   51 1.004    C   54 0.999    H   59 0.968
    53  C   3.995    C   52 1.013    H   62 0.984    H   60 0.982    H   61 0.978
    54  C   3.995    C   52 0.999    H   65 0.989    H   64 0.987    H   63 0.986
    55  H   0.975    N   47 0.959
    56  H   0.998    C   48 0.956
    57  H   0.997    C   51 0.971
    58  H   0.999    C   51 0.974
    59  H   1.000    C   52 0.968
    60  H   0.998    C   53 0.982
    61  H   0.999    C   53 0.978
    62  H   0.998    C   53 0.984
    63  H   0.998    C   54 0.986
    64  H   0.998    C   54 0.987
    65  H   0.999    C   54 0.989
    66  N   3.450    C   49 1.267    C   67 0.975    H   75 0.908    O   50 0.193
    67  C   3.967    C   70 0.975    N   66 0.975    H   76 0.956    C   68 0.955    O   69 0.056
    68  C   3.895    O   69 1.917    C   67 0.955    H  109 0.953
    69  O   2.093    C   68 1.917    C   67 0.056
    70  C   3.986    C   71 0.999    C   67 0.975    H   77 0.969    H   78 0.965
    71  C   3.993    C   70 0.999    H   80 0.971    H   79 0.958    C   72 0.953    O   73 0.056
    72  C   3.945    O   73 1.620    N   74 1.337    C   71 0.953
    73  O   1.973    C   72 1.620    N   74 0.196    C   71 0.056
    74  N   3.411    C   72 1.337    H   81 0.923    H   82 0.919    O   73 0.196
    75  H   0.957    N   66 0.908
    76  H   0.994    C   67 0.956
    77  H   0.996    C   70 0.969
    78  H   0.994    C   70 0.965
    79  H   0.995    C   71 0.958
    80  H   0.996    C   71 0.971
    81  H   0.945    N   74 0.923
    82  H   0.944    N   74 0.919
    83  N   3.006    C   84 1.030    H   87 0.954    H  110 0.952
    84  C   3.985    N   83 1.030    C   85 0.979    H   88 0.954    C   89 0.937    O   86 0.058
    85  C   3.896    O   86 1.890    C   84 0.979    H  111 0.956
    86  O   2.028    C   85 1.890    C   84 0.058
    87  H   0.973    N   83 0.954
    88  H   0.996    C   84 0.954
    89  C   3.991    C   90 1.012    H   97 0.965    H   98 0.950    C   84 0.937
    90  C   3.988    C   92 1.414    C   91 1.390    C   89 1.012    C   95 0.096
    91  C   3.991    C   93 1.467    C   90 1.390    H   99 0.965    C   94 0.103
    92  C   3.989    C   94 1.441    C   90 1.414    H  100 0.966    C   93 0.107
    93  C   3.989    C   91 1.467    C   95 1.358    H  101 0.966    C   92 0.107
    94  C   3.987    C   92 1.441    C   95 1.384    H  102 0.966    C   91 0.103    O   96 0.056
    95  C   3.936    C   94 1.384    C   93 1.358    O   96 1.061    C   90 0.096
    96  O   2.074    C   95 1.061    H  103 0.864    C   94 0.056
    97  H   0.995    C   89 0.965
    98  H   0.997    C   89 0.950
    99  H   0.998    C   91 0.965
   100  H   0.998    C   92 0.966
   101  H   0.997    C   93 0.966
   102  H   0.998    C   94 0.966
   103  H   0.890    O   96 0.864
   104  H   0.962    N    1 0.952
   105  H   0.992    C    3 0.956
   106  H   0.965    N   30 0.953
   107  H   0.994    C   32 0.954
   108  H   0.964    N   47 0.951
   109  H   0.993    C   68 0.953
   110  H   0.965    N   83 0.952
   111  H   0.995    C   85 0.956
 
molecular dipole:
                 x           y           z       tot (Debye)
 q only:        0.782       4.114      -0.923
   full:        0.233       5.147      -1.487      13.631
molecular quadrupole (traceless):
                xx          xy          yy          xz          yz          zz
 q only:      -25.150     167.690     179.662     -56.131     -43.670    -154.512
  q+dip:      -82.722     175.251     263.946     -79.784     -65.332    -181.225
   full:      -82.215     175.688     261.970     -81.792     -65.538    -179.755
speedup 11.96
cpu  time for grad    2.09 s
wall time for grad    0.18 s

SCC energy    :    -174.9779496
rep           :       2.1469748
ES            :       0.5892230
AES           :      -0.0129071
AXC           :       0.0553575
disp          :      -0.1110552
XB            :       0.0000000
fix           :       0.0000000
Gborn         :       0.0000000
Gsasa         :       0.0000000
Ghb           :       0.0000000
Gshift        :       0.0000000
Gsolv         :      -0.1063670      -66.75
Etot ala COSMO:    -174.9779496
grad norm     :       0.4920828
total E       :    -172.8244649
atomizationE  :      29.1854840    18314.17
(atE without considering molecular charge,
 total energy contains solvation terms)
H-L gap (eV)  :          1.6791

------------------------------------------------------------------------
 * finished run on 2019/02/16 at 08:11:06.236     
------------------------------------------------------------------------
 total:
 * wall-time:     0 d,  0 h,  0 min,  0.256 sec
 *  cpu-time:     0 d,  0 h,  0 min,  2.960 sec
 * ratio c/w:    11.539 speedup
 SCF:
 * wall-time:     0 d,  0 h,  0 min,  0.204 sec
 *  cpu-time:     0 d,  0 h,  0 min,  2.443 sec
 * ratio c/w:    11.966 speedup

