      -----------------------------------------------------------      
     |                   =====================                   |     
     |                           x T B                           |     
     |                   =====================                   |     
     |                         S. Grimme                         |     
     |          Mulliken Center for Theoretical Chemistry        |     
     |                    University of Bonn                     |     
     |                 Version 6.0.1 (SAW181210)                 |     
      -----------------------------------------------------------      

   This program is distributed in the hope that it will be useful,
   but WITHOUT ANY WARRANTY; without even the implied warranty of
   MERCHANTABILITY or FITNESS FOR A PARTICULAR PURPOSE.
   
   FOR NON-COMMERCIAL, ACADEMIA USE ONLY.
   
   Cite this work as:
   S. Grimme, C. Bannwarth, P. Shushkov, J. Comput. Theory Chem., 2017,
   13, 1989-2009.
   C. Bannwarth, S. Ehlert and S. Grimme., ChemRxiv, 2018, preprint.
   http://doi.org/10.26434/chemrxiv.7246238.v1
   
   for sTDA-xTB:
   S. Grimme and C. Bannwarth, J. Chem. Phys., 2016, 145, 054103.
   
   in the mass-spec context:
   V. Asgeirsson, C. Bauer and S. Grimme, Chem. Sci., 2017, 8, 4879.
   
   if GBSA is used:
   P. Shushkov, F. März and S. Grimme, unpublished.
   
   for ANC optimizer:
   S. Grimme, unpublished.
   Rational Function algorithm used in ANCopt:
   F. Eckert, P. Pulay, H.-J. Werner, J. Comput. Chem., 1997, 18, 1473.
   
   with help from (in alphabetical order)
   C. Bannwarth, F. Bohle, G. Brandenburg, E. Caldeweyher, M. Checinski,
   S. Dohm, S. Ehlert, S. Ehrlich, F. März, H. Neugebauer, J. Pisarek,
   P. Pracht, P. Shushkov, and S. Spicher.
   
 * started run on 2019/02/16 at 08:09:33.837     
========================================================================
 # omp threads = 12
========================================================================
number of atoms            : 601
number of electrons        : 1656
charge                     : -1
spin                       : .0
first test random number   : .3780

########################################################################
# WARNING! Please study the warnings concerning your input carefully
#  - Process number higher than OMP_NUM_THREADS, I hope you know what you are doing.
########################################################################

           ------------------------------------------------- 
          |                 G F N 2 - x T B                 |
          | Geometry, Frequencies, Noncovalent interactions |
          |            JCTC 2018 parametrisation            |
           ------------------------------------------------- 
 
      method parameters     
 k(s)        :  1.8500
 k(p)        :  2.2300
 k(d)        :  2.2300
 k(f)        :  2.0000
 kEN (H0ij)  : -2.0000
 D4 a1       :  0.5200
 D4 a2       :  5.0000
 D4 s6       :  1.0000
 D4 s8       :  2.7000
 D4 s9       :  5.0000
 alphaj      :  2.0000

 Solvent             : h2o
 Using internal parameter file: .param_gbsa2_h2o
 Gsolv ref. state (COSMO-RS): gsolv [1 M gas/solution]
 temperature (mdtemp)       :    298.150000000000     
 dielectric constant        :    80.2000000000000     
 rho                        :    1.00000000000000     
 mass                       :    18.0000000000000     
 surface tension            :    15.5689454083859     
 probe radius               :   0.975313790000000     
 vdW radii scaling          :    1.00000000000000     
 Gshift (Eh)                :   1.857443126794793E-003
 c1                         :    1.55243817000000     
 soset                      :   0.130326360000000     
 HB correction              :  T

            Z     q(EN)     CN     RAES       Cart. coordinates
     1  N   5.0   -0.20    3.21    1.96    26.87106    44.79807    -3.59523
     2  C   4.0    0.03    4.34    4.28    25.44699    47.03118    -2.79129
     3  C   4.0    0.15    3.44    3.09    25.99985    47.76484    -0.14642
     4  O   6.0   -0.31    1.31    1.80    25.87528    46.26332     1.56432
     5  C   4.0   -0.04    4.41    4.39    22.58313    46.46172    -2.94021
     6  C   4.0   -0.02    4.20    4.01    20.95843    48.74167    -2.46642
     7  C   4.0   -0.07    4.17    3.93    21.49530    50.73018    -4.43398
     8  C   4.0   -0.08    4.11    3.83    18.13410    48.00011    -2.79307
     9  H   1.0    0.12    1.05    1.44    26.61793    43.20190    -2.56852
    10  H   1.0    0.04    1.06    1.44    25.95978    48.53209    -4.11160
    11  H   1.0    0.04    1.03    1.43    22.18174    45.70701    -4.81692
    12  H   1.0    0.05    1.03    1.43    22.18174    44.97867    -1.55777
    13  H   1.0    0.05    1.05    1.44    21.25846    49.48907    -0.56485
    14  H   1.0    0.05    1.00    1.43    20.23183    52.33389    -4.17517
    15  H   1.0    0.04    1.00    1.43    23.40493    51.47532    -4.31589
    16  H   1.0    0.04    1.00    1.43    21.18962    49.95848    -6.31334
    17  H   1.0    0.04    1.00    1.43    16.92400    49.62962    -2.51006
    18  H   1.0    0.04    1.00    1.43    17.84179    47.26805    -4.68797
    19  H   1.0    0.04    1.00    1.43    17.60525    46.54788    -1.43683
    20  N   5.0   -0.14    3.46    2.05    26.77711    50.13261     0.37903
    21  C   4.0    0.03    4.43    4.44    27.32027    51.18735     2.86750
    22  C   4.0    0.15    3.40    3.08    24.84794    52.21534     4.03810
    23  O   6.0   -0.30    1.28    1.80    23.62879    53.76233     2.83565
    24  C   4.0   -0.04    4.31    4.21    29.37148    53.17136     2.64255
    25  C   4.0   -0.03    4.28    4.17    30.12649    53.89782     5.28115
    26  C   4.0    0.16    3.24    3.04    32.49328    55.56319     5.14356
    27  O   6.0   -0.31    1.27    1.80    32.48441    57.54108     4.02600
    28  N   5.0   -0.19    3.20    1.96    34.47951    54.75421     6.37107
    29  H   1.0    0.07    1.07    1.44    26.88115    51.40187    -1.05914
    30  H   1.0    0.06    1.06    1.44    27.98562    49.61247     4.04166
    31  H   1.0    0.05    1.03    1.43    30.96060    52.37004     1.60355
    32  H   1.0    0.06    1.03    1.43    28.66171    54.81724     1.62356
    33  H   1.0    0.06    1.03    1.43    28.63346    55.01911     6.15464
    34  H   1.0    0.05    1.03    1.43    30.49634    52.24058     6.44463
    35  H   1.0    0.08    1.03    1.43    34.43616    53.20537     7.49902
    36  H   1.0    0.09    1.03    1.43    36.05136    55.85284     6.49528
    37  N   5.0   -0.13    3.50    2.08    24.34794    51.46106     6.35925
    38  C   4.0    0.03    4.50    4.54    21.92926    51.82772     7.62342
    39  C   4.0    0.15    3.45    3.10    22.60554    53.05125    10.16427
    40  O   6.0   -0.31    1.30    1.80    24.38111    52.16393    11.41142
    41  C   4.0   -0.02    4.32    4.23    20.53336    49.36061     8.03948
    42  C   4.0   -0.04    4.19    3.98    19.63581    48.31593     5.47811
    43  C   4.0   -0.07    4.13    3.86    18.13863    49.80901     9.67321
    44  C   4.0   -0.08    3.99    3.60    19.08404    45.44458     5.47947
    45  H   1.0    0.11    1.11    1.45    25.48587    50.14367     7.18060
    46  H   1.0    0.06    1.06    1.44    20.82625    53.10560     6.42984
    47  H   1.0    0.05    1.05    1.44    21.79699    48.01247     8.95579
    48  H   1.0    0.04    1.03    1.43    17.94997    49.33954     4.88042
    49  H   1.0    0.06    1.03    1.43    21.09493    48.64990     4.05427
    50  H   1.0    0.04    1.00    1.43    16.98960    48.11592     9.72017
    51  H   1.0    0.06    1.00    1.43    18.63233    50.29627    11.60779
    52  H   1.0    0.04    1.00    1.43    17.03114    51.33460     8.86541
    53  H   1.0    0.04    1.00    1.43    18.33822    44.87333     3.65853
    54  H   1.0    0.04    1.00    1.43    20.82358    44.42037     5.84348
    55  H   1.0    0.04    1.00    1.43    17.70789    44.95792     6.92230
    56  N   5.0   -0.14    3.46    2.05    21.22336    55.00406    10.90868
    57  C   4.0    0.04    4.43    4.43    21.59071    56.22926    13.34579
    58  C   4.0    0.16    3.44    3.09    19.71486    55.26415    15.28059
    59  O   6.0   -0.31    1.29    1.80    17.46029    55.41487    14.83917
    60  C   4.0   -0.04    4.26    4.12    21.14732    59.08609    12.91131
    61  C   4.0   -0.05    4.16    3.91    22.61761    60.68199    14.85910
    62  C   4.0   -0.01    4.17    3.95    22.17915    63.57940    14.53835
    63  N   5.0   -0.14    3.40    2.02    23.52397    64.90302    16.55085
    64  C   4.0    0.10    3.34    3.06    23.26151    67.35684    17.09031
    65  N   5.0   -0.17    3.25    1.97    21.48591    68.70827    15.89883
    66  N   5.0   -0.18    3.23    1.96    24.56588    68.28150    19.04365
    67  H   1.0    0.09    1.10    1.44    19.70520    55.62569     9.93155
    68  H   1.0    0.06    1.06    1.44    23.53812    55.86287    13.92906
    69  H   1.0    0.05    1.03    1.43    21.77154    59.59428    11.01559
    70  H   1.0    0.06    1.03    1.43    19.12694    59.46695    13.03600
    71  H   1.0    0.05    1.03    1.43    21.97898    60.15336    16.74504
    72  H   1.0    0.05    1.04    1.43    24.62176    60.27481    14.65220
    73  H   1.0    0.05    1.02    1.43    22.83531    64.19332    12.67655
    74  H   1.0    0.05    1.02    1.43    20.16525    63.99109    14.67786
    75  H   1.0    0.09    1.07    1.44    24.94548    63.93074    17.37788
    76  H   1.0    0.11    1.04    1.43    20.99024    68.21909    14.12050
    77  H   1.0    0.11    1.05    1.44    21.37750    70.59339    16.24208
    78  H   1.0    0.09    1.03    1.43    25.83211    67.21345    19.97808
    79  H   1.0    0.09    1.03    1.43    24.39877    70.12496    19.48151
    80  N   5.0   -0.14    3.37    2.01    20.73951    54.31270    17.36449
    81  C   4.0    0.02    4.29    4.18    19.04352    53.60678    19.41153
    82  C   4.0    0.15    3.33    3.06    18.63868    50.79762    19.54565
    83  O   6.0   -0.30    1.28    1.80    18.12888    49.50026    17.70269
    84  H   1.0    0.11    1.09    1.44    22.62662    54.05607    17.56257
    85  H   1.0    0.05    1.03    1.43    19.82421    54.29863    21.19304
    86  H   1.0    0.07    1.05    1.44    17.22119    54.50312    19.04187
    87  N   5.0   -0.15    3.45    2.05    19.05511    49.75248    21.81472
    88  C   4.0    0.03    4.38    4.34    18.77885    47.01005    22.22027
    89  C   4.0    0.16    3.45    3.09    16.10572    46.03396    21.67806
    90  O   6.0   -0.31    1.29    1.80    15.90829    44.05662    20.42910
    91  H   1.0    0.09    1.08    1.44    19.60909    50.81561    23.31765
    92  H   1.0    0.05    1.05    1.44    20.00768    46.02163    20.87994
    93  C   4.0   -0.04    4.26    4.12    19.48539    46.50275    24.99049
    94  C   4.0   -0.03    4.15    3.91    19.30399    43.77078    25.93172
    95  C   4.0   -0.00    4.19    3.98    21.87283    42.61725    26.63233
    96  N   5.0   -0.14    3.39    2.02    22.97841    41.23350    24.53613
    97  C   4.0    0.10    3.34    3.06    22.89746    38.75132    24.18841
    98  N   5.0   -0.17    3.26    1.97    22.11042    37.17368    25.96025
    99  N   5.0   -0.19    3.25    1.97    23.90858    37.78529    22.07720
   100  H   1.0    0.05    1.03    1.43    21.40833    47.18775    25.27709
   101  H   1.0    0.05    1.03    1.43    18.21235    47.65495    26.13374
   102  H   1.0    0.06    1.03    1.43    18.10867    43.70758    27.60241
   103  H   1.0    0.06    1.03    1.43    18.35735    42.56934    24.54742
   104  H   1.0    0.05    1.03    1.43    23.20236    44.09737    27.17510
   105  H   1.0    0.06    1.03    1.43    21.64131    41.35985    28.24100
   106  H   1.0    0.08    1.07    1.44    23.61278    42.31615    23.09005
   107  H   1.0    0.10    1.05    1.44    21.32738    37.76534    27.61638
   108  H   1.0    0.09    1.04    1.43    21.92087    35.32689    25.56300
   109  H   1.0    0.08    1.03    1.43    24.44397    38.91362    20.63973
   110  H   1.0    0.08    1.03    1.43    23.78244    35.92255    21.72202
   111  N   5.0   -0.13    3.51    2.08    14.15246    47.43322    22.40238
   112  C   4.0    0.04    4.41    4.39    11.57592    46.51015    22.15409
   113  C   4.0    0.16    3.49    3.11    11.08072    46.34724    19.31605
   114  O   6.0   -0.31    1.29    1.80    10.10124    44.49524    18.28096
   115  C   4.0   -0.04    4.23    4.06     9.54037    48.16263    23.34443
   116  C   4.0   -0.02    4.17    3.94     9.76497    48.64897    26.16663
   117  C   4.0    0.25    3.08    3.02     9.72709    46.39680    28.05098
   118  O   6.0   -0.27    1.16    1.80     8.15385    46.56277    29.81955
   119  O   6.0   -0.28    1.16    1.80    11.38376    44.71421    27.82462
   120  H   1.0    0.10    1.11    1.44    14.43478    48.82758    23.71969
   121  H   1.0    0.08    1.05    1.44    11.43808    44.59586    22.94999
   122  H   1.0    0.05    1.03    1.43     9.51926    49.98778    22.38884
   123  H   1.0    0.06    1.03    1.43     7.71856    47.25994    22.96671
   124  H   1.0    0.07    1.06    1.44    11.53807    49.59603    26.58716
   125  H   1.0    0.06    1.03    1.43     8.21686    49.88487    26.73341
   126  N   5.0   -0.13    3.49    2.07    12.00964    48.30930    17.95688
   127  C   4.0    0.04    4.39    4.36    11.53537    48.37945    15.23456
   128  C   4.0    0.15    3.45    3.10    12.91383    46.29151    13.77568
   129  O   6.0   -0.31    1.24    1.80    11.90401    45.08484    12.02166
   130  C   4.0   -0.04    4.24    4.09    12.26251    50.98304    14.16043
   131  C   4.0   -0.05    4.15    3.90    11.43769    51.47674    11.36127
   132  C   4.0   -0.01    4.20    4.00    12.19532    54.20372    10.55483
   133  N   5.0   -0.14    3.45    2.05    10.33896    55.86547    11.88063
   134  C   4.0    0.10    3.34    3.06    10.66440    58.33541    12.05057
   135  N   5.0   -0.18    3.31    1.99    12.87847    59.23687    11.34246
   136  N   5.0   -0.17    3.26    1.97     8.93830    59.78470    13.13096
   137  H   1.0    0.10    1.08    1.44    12.59285    49.91362    18.84234
   138  H   1.0    0.06    1.05    1.44     9.50760    48.04953    14.91179
   139  H   1.0    0.06    1.03    1.43    11.33075    52.40915    15.31883
   140  H   1.0    0.06    1.02    1.43    14.30154    51.22839    14.31317
   141  H   1.0    0.04    1.02    1.43    12.34894    50.09304    10.14601
   142  H   1.0    0.04    1.02    1.43     9.40439    51.23988    11.18418
   143  H   1.0    0.06    1.03    1.43    14.09644    54.58625    11.24131
   144  H   1.0    0.04    1.02    1.43    12.03246    54.46242     8.52532
   145  H   1.0    0.10    1.10    1.44     8.71694    55.07543    12.54160
   146  H   1.0    0.10    1.06    1.44    14.10096    58.20729    10.31602
   147  H   1.0    0.11    1.07    1.44    13.20655    61.13150    11.48378
   148  H   1.0    0.11    1.05    1.44     7.23735    59.07796    13.61946
   149  H   1.0    0.13    1.10    1.44     9.18567    61.67814    13.42764
   150  N   5.0   -0.14    3.48    2.07    15.32144    45.98790    14.48287
   151  C   4.0    0.04    4.41    4.39    16.76298    43.93395    13.45843
   152  C   4.0    0.16    3.49    3.11    15.59107    41.39758    13.87661
   153  O   6.0   -0.31    1.30    1.80    15.24760    39.79014    12.20298
   154  C   4.0   -0.04    4.27    4.15    19.50686    43.90995    14.56151
   155  C   4.0   -0.01    3.51    3.12    20.99704    41.47803    13.95690
   156  C   4.0   -0.04    3.51    3.12    21.96495    40.91892    11.58018
   157  C   4.0   -0.04    3.44    3.09    21.45440    39.71768    15.83483
   158  C   4.0   -0.04    3.34    3.06    23.24060    38.74458    10.87986
   159  C   4.0   -0.04    3.39    3.08    22.69934    37.46466    15.19797
   160  C   4.0   -0.04    3.38    3.07    23.48799    36.94787    12.74539
   161  H   1.0    0.11    1.09    1.44    16.06707    47.02923    15.91828
   162  H   1.0    0.05    1.06    1.44    16.87956    44.14023    11.39205
   163  H   1.0    0.04    1.02    1.43    20.49410    45.55961    13.83590
   164  H   1.0    0.06    1.03    1.43    19.33679    44.06386    16.60773
   165  H   1.0    0.05    1.03    1.43    21.68045    42.34994    10.13204
   166  H   1.0    0.05    1.03    1.43    20.78163    40.00147    17.73719
   167  H   1.0    0.06    1.03    1.43    23.98523    38.50395     9.00688
   168  H   1.0    0.05    1.03    1.43    22.94963    36.04670    16.63950
   169  H   1.0    0.05    1.03    1.43    24.35227    35.15591    12.37136
   170  N   5.0   -0.13    3.45    2.04    14.57373    40.95809    16.21441
   171  C   4.0    0.04    4.36    4.30    13.41511    38.44311    16.69527
   172  C   4.0    0.16    3.39    3.08    10.98252    37.99912    15.04011
   173  O   6.0   -0.30    1.26    1.80    10.55781    35.92201    14.08236
   174  H   1.0    0.12    1.09    1.44    14.81231    42.13174    17.70689
   175  H   1.0    0.05    1.05    1.44    14.75294    36.95513    16.20480
   176  C   4.0   -0.03    4.28    4.16    12.61943    38.23373    19.46819
   177  C   4.0   -0.03    4.15    3.90    14.74801    37.99397    21.36860
   178  C   4.0    0.26    3.08    3.02    13.68588    37.96598    24.15398
   179  O   6.0   -0.27    1.18    1.80    11.45251    38.62890    24.50806
   180  O   6.0   -0.28    1.16    1.80    15.23161    37.30190    25.78866
   181  H   1.0    0.07    1.03    1.43    11.48910    39.89182    19.96190
   182  H   1.0    0.06    1.03    1.43    11.35835    36.60240    19.65424
   183  H   1.0    0.05    1.02    1.43    15.82355    36.25963    21.08266
   184  H   1.0    0.06    1.03    1.43    16.01239    39.61526    21.23389
   185  N   5.0   -0.13    3.47    2.06     9.55538    39.98930    14.60403
   186  C   4.0    0.04    4.43    4.42     7.27057    39.86784    12.95269
   187  C   4.0    0.15    3.51    3.12     8.06928    39.06056    10.32286
   188  O   6.0   -0.29    1.23    1.80     6.99116    37.39087     9.05143
   189  C   4.0   -0.04    4.39    4.36     5.89736    42.36269    13.08243
   190  C   4.0   -0.03    4.12    3.85     3.82980    42.39675    11.14630
   191  S   6.0   -0.03    2.53    3.10     2.60825    45.50043    10.76450
   192  C   4.0   -0.07    3.88    3.43     5.00489    46.97884     8.77059
   193  H   1.0    0.11    1.08    1.44     9.77149    41.58822    15.63928
   194  H   1.0    0.06    1.05    1.44     6.05319    38.35267    13.69478
   195  H   1.0    0.06    1.03    1.43     5.15605    42.62536    14.98714
   196  H   1.0    0.06    1.05    1.44     7.26718    43.86328    12.68942
   197  H   1.0    0.05    1.09    1.44     4.50636    41.75292     9.30527
   198  H   1.0    0.05    1.08    1.44     2.25844    41.18284    11.69572
   199  H   1.0    0.04    1.05    1.44     4.42994    48.93349     8.60954
   200  H   1.0    0.05    1.03    1.43     6.85640    46.82208     9.63967
   201  H   1.0    0.05    1.04    1.43     5.00528    46.06770     6.93271
   202  N   5.0   -0.14    3.51    2.09     9.94744    40.43287     9.28255
   203  C   4.0    0.04    4.47    4.49    10.72294    39.90758     6.79643
   204  C   4.0    0.16    3.47    3.10    11.86036    37.24032     6.53016
   205  O   6.0   -0.28    1.23    1.80    11.61882    35.98009     4.59901
   206  C   4.0   -0.04    4.27    4.15    12.64690    41.83908     5.70920
   207  C   4.0   -0.02    3.50    3.12    11.32175    44.26299     4.85360
   208  C   4.0   -0.04    3.52    3.12     9.25152    44.23117     3.20090
   209  C   4.0   -0.04    3.50    3.12    11.89916    46.60076     5.75340
   210  C   4.0   -0.04    3.41    3.08     7.92410    46.35527     2.56559
   211  C   4.0   -0.05    3.40    3.08    10.71884    48.83302     4.92218
   212  C   4.0   -0.05    3.38    3.07     8.57867    48.66844     3.47303
   213  H   1.0    0.11    1.08    1.44    10.80432    41.82862    10.28825
   214  H   1.0    0.06    1.06    1.44     9.03876    39.87851     5.57594
   215  H   1.0    0.05    1.03    1.43    14.04872    42.24732     7.15692
   216  H   1.0    0.04    1.03    1.43    13.55701    40.96252     4.08467
   217  H   1.0    0.05    1.03    1.43     8.68266    42.43851     2.39219
   218  H   1.0    0.05    1.03    1.43    13.45735    46.79199     7.06288
   219  H   1.0    0.05    1.03    1.43     6.28793    46.15269     1.35715
   220  H   1.0    0.04    1.03    1.43    11.31425    50.60069     5.72506
   221  H   1.0    0.04    1.03    1.43     7.51675    50.32574     2.94549
   222  N   5.0   -0.14    3.47    2.06    13.27482    36.54424     8.45668
   223  C   4.0    0.04    4.35    4.29    14.49205    34.01076     8.40819
   224  C   4.0    0.16    3.45    3.09    12.40793    31.95429     8.34143
   225  O   6.0   -0.28    1.22    1.80    12.59383    30.09712     6.89695
   226  H   1.0    0.12    1.10    1.44    13.56950    37.63423    10.00156
   227  H   1.0    0.05    1.05    1.44    15.55004    33.83457     6.64338
   228  C   4.0   -0.05    4.18    3.97    16.29011    33.40799    10.65043
   229  C   4.0   -0.05    4.14    3.88    17.28561    30.66706    10.81305
   230  C   4.0   -0.01    4.13    3.86    19.21888    29.86138     8.77784
   231  N   5.0   -0.14    3.35    2.00    19.77082    27.13035     8.92905
   232  C   4.0    0.09    3.33    3.06    21.44360    25.80285     7.57387
   233  N   5.0   -0.19    3.23    1.96    23.27307    26.88384     6.23893
   234  N   5.0   -0.19    3.24    1.97    21.54359    23.28542     7.88781
   235  H   1.0    0.05    1.02    1.43    17.87706    34.72045    10.56823
   236  H   1.0    0.06    1.03    1.43    15.23544    33.77825    12.38726
   237  H   1.0    0.04    1.03    1.43    18.15641    30.50230    12.67074
   238  H   1.0    0.05    1.03    1.43    15.68271    29.36702    10.76919
   239  H   1.0    0.05    1.02    1.43    18.45287    30.28470     6.91291
   240  H   1.0    0.04    1.02    1.43    20.98490    30.89585     9.04494
   241  H   1.0    0.08    1.07    1.44    18.36625    26.03535     9.71439
   242  H   1.0    0.08    1.03    1.43    22.98042    28.61069     5.47572
   243  H   1.0    0.08    1.03    1.43    24.47428    25.74842     5.24384
   244  H   1.0    0.08    1.03    1.43    20.02784    22.45041     8.69953
   245  H   1.0    0.08    1.03    1.43    22.70419    22.21430     6.80608
   246  N   5.0   -0.13    3.42    2.03    10.33331    32.35433     9.71054
   247  C   4.0    0.04    4.30    4.19     8.30012    30.42585     9.76601
   248  C   4.0    0.10    3.23    3.04     6.95905    30.31244     7.18613
   249  O   6.0   -0.27    1.11    1.80     6.37320    28.25622     6.25650
   250  C   4.0   -0.03    4.22    4.05     6.25715    31.18437    11.75616
   251  C   4.0   -0.02    4.19    3.99     4.58062    28.91226    12.26478
   252  C   4.0    0.25    3.08    3.02     2.36604    29.15475    14.16637
   253  O   6.0   -0.27    1.17    1.80     2.17158    31.13793    15.38418
   254  O   6.0   -0.27    1.16    1.80     0.90907    27.26850    14.31742
   255  H   1.0    0.11    1.09    1.44    10.31962    33.72407    11.05083
   256  H   1.0    0.06    1.05    1.44     9.10131    28.57288    10.18982
   257  H   1.0    0.07    1.02    1.43     7.18119    31.79546    13.49311
   258  H   1.0    0.07    1.03    1.43     5.14346    32.72481    10.99711
   259  H   1.0    0.07    1.03    1.43     3.73374    28.24671    10.49888
   260  H   1.0    0.05    1.03    1.43     5.73248    27.34925    12.98410
   261  O   6.0   -0.28    1.96    1.82    23.24165    59.06915     3.81844
   262  H   1.0    0.16    0.98    1.43    23.24270    58.75151     2.03765
   263  H   1.0    0.17    1.04    1.43    21.63367    59.88658     4.20934
   264  O   6.0   -0.32    1.97    1.82    12.47524    53.18450    20.85195
   265  H   1.0    0.14    0.99    1.43    13.11096    54.73934    20.07489
   266  H   1.0    0.13    0.97    1.43    10.67419    53.39758    20.81382
   267  O   6.0   -0.29    1.92    1.82     5.96757    41.62099    20.01168
   268  H   1.0    0.15    1.01    1.43     7.51014    42.48069    19.53495
   269  H   1.0    0.14    0.97    1.43     6.08280    41.32097    21.79421
   270  O   6.0   -0.32    1.98    1.82     5.98433    54.40935    14.66148
   271  H   1.0    0.16    1.03    1.43     5.22650    55.99438    15.18720
   272  H   1.0    0.13    0.97    1.43     4.60504    53.25023    14.48417
   273  O   6.0   -0.31    1.95    1.82    13.79638    57.76183    18.05629
   274  H   1.0    0.15    1.00    1.43    14.92421    57.29393    16.68452
   275  H   1.0    0.14    0.97    1.43    12.48686    58.77946    17.33137
   276  O   6.0   -0.31    1.95    1.82    20.47020    48.28232    31.47675
   277  H   1.0    0.13    0.97    1.43    20.25365    50.08111    31.41433
   278  H   1.0    0.14    0.99    1.43    18.77984    47.56630    31.51858
   279  O   6.0   -0.32    2.02    1.83    14.49296    51.60584    25.70733
   280  H   1.0    0.13    0.97    1.43    16.04202    52.55014    25.90780
   281  H   1.0    0.14    0.99    1.43    13.57787    52.44753    24.35793
   282  O   6.0   -0.31    1.97    1.82    15.63205    45.59944    31.64061
   283  H   1.0    0.15    0.98    1.43    15.15077    44.54873    30.22841
   284  H   1.0    0.14    0.97    1.43    14.10634    46.48441    32.06400
   285  O   6.0   -0.29    1.92    1.82     3.49748    50.24359    24.59651
   286  H   1.0    0.13    0.97    1.43     4.01799    51.89268    25.15447
   287  H   1.0    0.13    0.97    1.43     2.13162    50.50905    23.42939
   288  O   6.0   -0.33    2.07    1.83    17.15538    56.97370     7.80766
   289  H   1.0    0.15    1.00    1.43    17.28585    58.77846     7.35589
   290  H   1.0    0.13    0.98    1.43    18.60674    56.39419     6.85420
   291  O   6.0   -0.29    1.93    1.82    29.36648    61.08426     1.46451
   292  H   1.0    0.16    1.00    1.43    30.32862    59.87563     2.43998
   293  H   1.0    0.13    0.97    1.43    30.46928    61.68401     0.14075
   294  O   6.0   -0.29    1.93    1.82    24.89827    56.61605    -1.46451
   295  H   1.0    0.12    0.97    1.43    26.10690    55.65391    -2.43998
   296  H   1.0    0.16    1.01    1.43    24.29852    55.51325    -0.14075
   297  O   6.0   -0.32    2.01    1.83    14.08681    64.36467    12.60405
   298  H   1.0    0.13    0.97    1.43    15.01910    64.16153    14.15137
   299  H   1.0    0.16    1.05    1.44    12.35936    64.78215    13.17558
   300  O   6.0   -0.32    1.94    1.82    21.72173    53.09759    25.77008
   301  H   1.0    0.13    0.97    1.43    23.14849    52.05094    26.18887
   302  H   1.0    0.13    0.97    1.43    21.16504    53.84022    27.32993
   303  O   6.0   -0.28    1.93    1.82     2.84872    62.71930    11.52802
   304  H   1.0    0.16    1.01    1.43     3.75311    63.72460    12.75376
   305  H   1.0    0.15    0.98    1.43     1.68392    61.67789    12.47099
   306  O   6.0   -0.28    1.92    1.82    17.86487    67.29673     9.94348
   307  H   1.0    0.13    0.97    1.43    18.25584    66.33945     8.45425
   308  H   1.0    0.14    0.99    1.43    16.51650    66.36877    10.80389
   309  O   6.0   -0.31    1.95    1.82    20.47020    37.70021    31.26215
   310  H   1.0    0.13    0.97    1.43    20.25365    35.90142    31.32458
   311  H   1.0    0.15    0.99    1.43    18.77984    38.41623    31.22032
   312  O   6.0   -0.31    2.02    1.83     3.85159    58.95257    15.62967
   313  H   1.0    0.17    1.05    1.44     2.04109    58.77230    15.20903
   314  H   1.0    0.15    0.97    1.43     4.02637    60.60870    16.35182
   315  O   6.0   -0.29    1.92    1.82    27.05598    74.26415    14.46334
   316  H   1.0    0.14    0.97    1.43    26.12082    74.96902    15.85361
   317  H   1.0    0.15    1.00    1.43    25.78381    73.91582    13.19647
   318  O   6.0   -0.31    1.93    1.82    31.69100    39.50538    11.86285
   319  H   1.0    0.13    0.97    1.43    32.21365    37.95937    12.66501
   320  H   1.0    0.14    0.98    1.43    30.59498    38.98298    10.49277
   321  O   6.0   -0.30    1.97    1.82    15.63205    40.38309    31.09830
   322  H   1.0    0.13    0.98    1.43    15.15077    41.43380    32.51049
   323  H   1.0    0.15    0.97    1.43    14.10634    39.49812    30.67490
   324  O   6.0   -0.32    2.06    1.83    29.69927    61.70027    22.84633
   325  H   1.0    0.12    0.97    1.43    31.38410    61.50911    23.49352
   326  H   1.0    0.12    0.97    1.43    28.79972    62.75128    24.03282
   327  O   6.0   -0.30    1.92    1.82    24.28226    29.69927    22.84633
   328  H   1.0    0.12    0.97    1.43    24.47342    31.38410    23.49352
   329  H   1.0    0.13    0.97    1.43    23.23125    28.79972    24.03282
   330  O   6.0   -0.30    1.94    1.82    21.36291    74.49021    15.87840
   331  H   1.0    0.16    1.01    1.43    21.79251    74.10257    14.12159
   332  H   1.0    0.14    0.97    1.43    19.85465    75.50460    15.76824
   333  N   5.0   -0.11    4.12    3.21    27.24587    57.32239    22.37147
   334  C   4.0   -0.00    4.30    4.19    29.00875    55.19694    21.69452
   335  C   4.0    0.15    3.42    3.09    28.24810    54.37123    18.98869
   336  O   6.0   -0.32    1.33    1.80    25.97217    54.38078    18.52038
   337  C   4.0   -0.04    4.24    4.09    28.63921    52.96887    23.52341
   338  C   4.0   -0.03    4.15    3.89    30.92084    51.20200    23.58886
   339  C   4.0    0.25    3.07    3.02    30.96627    49.40739    25.97818
   340  O   6.0   -0.29    1.18    1.80    28.87669    49.01709    27.00801
   341  O   6.0   -0.28    1.15    1.80    33.05958    48.52958    26.64011
   342  H   1.0    0.06    1.03    1.43    26.54384    57.05371    24.16381
   343  H   1.0    0.09    1.09    1.44    28.16646    59.12736    22.30966
   344  H   1.0    0.08    1.06    1.44    25.73270    57.18090    21.12795
   345  H   1.0    0.04    1.04    1.43    30.95761    55.85575    21.77136
   346  H   1.0    0.05    1.03    1.43    28.41495    53.68329    25.44936
   347  H   1.0    0.06    1.03    1.43    26.96005    51.88814    23.02912
   348  H   1.0    0.06    1.02    1.43    30.97197    49.96699    21.93410
   349  H   1.0    0.05    1.02    1.43    32.69386    52.25330    23.65255
   350  N   5.0   -0.14    3.58    2.14    30.06210    53.95440    17.35437
   351  C   4.0    0.04    4.46    4.48    29.62042    53.24294    14.75987
   352  C   4.0    0.15    3.37    3.07    30.20239    50.41482    14.48529
   353  O   6.0   -0.29    1.21    1.80    31.90105    49.34549    15.67344
   354  H   1.0    0.08    1.07    1.44    31.89874    53.89201    17.90301
   355  H   1.0    0.07    1.07    1.44    27.61876    53.53507    14.34509
   356  C   4.0   -0.03    4.32    4.23    31.18974    55.02311    13.07509
   357  C   4.0   -0.01    3.64    3.19    30.75315    57.65152    14.02018
   358  C   4.0   -0.04    3.54    3.13    31.96771    58.54624    16.18374
   359  C   4.0   -0.04    3.48    3.11    29.14249    59.26045    12.75262
   360  C   4.0   -0.03    3.44    3.09    31.47254    60.92211    17.12357
   361  C   4.0   -0.05    3.45    3.10    28.74867    61.69989    13.58331
   362  C   4.0    0.07    3.46    3.10    29.85566    62.51369    15.82229
   363  O   6.0   -0.25    2.11    1.84    29.35396    64.85027    16.81112
   364  H   1.0    0.05    1.03    1.43    33.17885    54.51845    13.25126
   365  H   1.0    0.05    1.03    1.43    30.60961    54.79552    11.11627
   366  H   1.0    0.05    1.04    1.43    33.39460    57.42323    17.08495
   367  H   1.0    0.06    1.03    1.43    28.22524    58.61499    11.04813
   368  H   1.0    0.06    1.03    1.43    32.34833    61.58774    18.83274
   369  H   1.0    0.06    1.03    1.43    27.57029    62.96354    12.50256
   370  H   1.0    0.12    1.04    1.43    28.59452    65.91174    15.53112
   371  N   5.0   -0.13    3.51    2.08    28.50270    49.18833    13.01248
   372  C   4.0    0.04    4.39    4.37    28.75703    46.47564    12.50403
   373  C   4.0    0.14    3.43    3.09    28.72038    46.09616     9.63530
   374  O   6.0   -0.31    1.34    1.80    27.67011    47.70856     8.29565
   375  C   4.0   -0.03    4.37    4.33    26.46963    45.14461    13.63299
   376  C   4.0   -0.01    3.59    3.16    26.20581    45.48965    16.40098
   377  C   4.0   -0.03    3.46    3.10    24.81272    47.50095    17.37939
   378  C   4.0   -0.03    3.48    3.10    27.45641    43.84870    18.01887
   379  C   4.0   -0.03    3.40    3.08    24.76421    47.85246    19.95288
   380  C   4.0   -0.03    3.37    3.07    27.47889    44.30543    20.60829
   381  C   4.0   -0.04    3.38    3.07    26.12724    46.29911    21.56303
   382  H   1.0    0.12    1.10    1.44    27.11296    50.11740    12.07424
   383  H   1.0    0.06    1.05    1.44    30.52055    45.81766    13.35172
   384  H   1.0    0.05    1.04    1.43    24.79690    45.88896    12.66996
   385  H   1.0    0.05    1.03    1.43    26.58788    43.12836    13.18042
   386  H   1.0    0.07    1.03    1.43    23.82873    48.76688    16.12238
   387  H   1.0    0.06    1.03    1.43    28.51593    42.29512    17.22822
   388  H   1.0    0.06    1.03    1.43    23.72473    49.43085    20.71724
   389  H   1.0    0.06    1.03    1.43    28.55719    43.09205    21.84482
   390  H   1.0    0.06    1.03    1.43    26.19493    46.70087    23.56396
   391  N   5.0   -0.14    3.56    2.12    29.85008    44.15550     8.51649
   392  C   4.0    0.05    4.62    4.69    29.81550    43.62620     5.91945
   393  C   4.0    0.14    3.49    3.11    28.46056    41.13423     5.48484
   394  O   6.0   -0.32    1.26    1.80    28.72342    39.30088     6.94364
   395  H   1.0    0.09    1.09    1.44    30.54953    42.78021     9.65788
   396  H   1.0    0.07    1.08    1.44    28.79125    45.14662     4.95907
   397  C   4.0    0.06    4.33    4.25    32.46041    43.58981     4.99329
   398  O   6.0   -0.25    2.16    1.85    32.23390    43.63361     2.38609
   399  C   4.0   -0.07    4.16    3.93    33.83655    41.38229     6.17929
   400  H   1.0    0.05    1.05    1.44    33.37553    45.37355     5.55642
   401  H   1.0    0.12    1.03    1.43    32.70042    42.01041     1.68485
   402  H   1.0    0.04    1.00    1.43    35.79696    41.38117     5.56745
   403  H   1.0    0.05    1.01    1.43    33.80432    41.52269     8.22106
   404  H   1.0    0.06    1.01    1.43    33.00310    39.60571     5.59358
   405  N   5.0   -0.14    3.47    2.06    26.87106    41.18446     3.59523
   406  C   4.0    0.03    4.36    4.31    25.44699    38.95135     2.79129
   407  C   4.0    0.08    3.27    3.05    25.99985    38.21770     0.14642
   408  O   6.0   -0.31    1.18    1.80    25.87528    39.71921    -1.56432
   409  C   4.0   -0.04    4.41    4.39    22.58313    39.52081     2.94021
   410  C   4.0   -0.03    4.20    4.01    20.95843    37.24086     2.46642
   411  C   4.0   -0.08    4.17    3.93    21.49530    35.25235     4.43398
   412  C   4.0   -0.07    4.11    3.83    18.13410    37.98242     2.79307
   413  H   1.0    0.11    1.09    1.44    26.61793    42.78063     2.56852
   414  H   1.0    0.05    1.07    1.44    25.95978    37.45044     4.11160
   415  H   1.0    0.04    1.03    1.43    22.18174    40.27552     4.81692
   416  H   1.0    0.05    1.03    1.43    22.18174    41.00386     1.55777
   417  H   1.0    0.04    1.05    1.44    21.25846    36.49346     0.56485
   418  H   1.0    0.04    1.00    1.43    20.23183    33.64864     4.17517
   419  H   1.0    0.04    1.00    1.43    23.40493    34.50721     4.31589
   420  H   1.0    0.04    1.00    1.43    21.18962    36.02405     6.31334
   421  H   1.0    0.05    1.00    1.43    16.92400    36.35291     2.51006
   422  H   1.0    0.04    1.00    1.43    17.84179    38.71448     4.68797
   423  H   1.0    0.04    1.00    1.43    17.60525    39.43465     1.43683
   424  N   5.0   -0.22    3.19    1.95     9.40011    54.14037    -1.78350
   425  C   4.0    0.02    4.23    4.06    11.10708    55.22720     0.11416
   426  C   4.0    0.08    3.25    3.04    11.30735    58.05171    -0.18699
   427  O   6.0   -0.30    1.13    1.80    11.24680    59.63200     1.59760
   428  C   4.0   -0.03    4.38    4.35    13.72494    54.12487    -0.15139
   429  C   4.0    0.16    3.25    3.04    15.60892    54.87361     1.84831
   430  O   6.0   -0.27    1.20    1.80    17.61420    55.92112     1.29887
   431  N   5.0   -0.19    3.27    1.97    14.83772    54.40984     4.09288
   432  H   1.0    0.08    1.02    1.43    10.11366    52.89928    -3.06118
   433  H   1.0    0.04    1.05    1.44    10.26695    54.88195     1.97983
   434  H   1.0    0.03    1.03    1.43    13.54953    52.06077    -0.14511
   435  H   1.0    0.05    1.03    1.43    14.48129    54.66244    -1.99872
   436  H   1.0    0.11    1.11    1.45    15.72888    55.13768     5.63871
   437  H   1.0    0.07    1.05    1.44    13.18127    53.50170     4.34734
   438  N   5.0   -0.20    3.26    1.97     5.34865    61.13704     2.55174
   439  C   4.0    0.03    4.37    4.32     5.43081    61.25682     5.26928
   440  C   4.0    0.15    3.42    3.08     7.02728    63.34705     6.21061
   441  O   6.0   -0.29    1.26    1.80     6.39774    64.70231     7.99290
   442  C   4.0   -0.04    4.43    4.43     6.10903    58.77265     6.39936
   443  C   4.0   -0.03    4.18    3.95     4.13299    56.64650     5.88205
   444  C   4.0   -0.08    4.15    3.91     5.53569    54.31950     6.74285
   445  C   4.0   -0.07    4.09    3.78     1.73611    57.13350     7.44557
   446  H   1.0    0.09    1.02    1.43     5.97914    59.57919     1.63509
   447  H   1.0    0.06    1.07    1.44     3.52252    61.77603     5.93894
   448  H   1.0    0.05    1.03    1.43     7.95128    58.21757     5.64792
   449  H   1.0    0.05    1.04    1.43     6.27407    59.03760     8.43589
   450  H   1.0    0.04    1.05    1.44     3.69121    56.55756     3.87491
   451  H   1.0    0.04    1.00    1.43     4.37786    52.63121     6.55070
   452  H   1.0    0.04    1.00    1.43     7.24236    54.06497     5.63577
   453  H   1.0    0.04    1.01    1.43     6.04882    54.51469     8.72276
   454  H   1.0    0.05    1.00    1.43     0.47377    55.51396     7.37142
   455  H   1.0    0.06    1.00    1.43     2.22062    57.46489     9.41599
   456  H   1.0    0.05    1.00    1.43     0.72370    58.78345     6.77169
   457  N   5.0   -0.14    3.42    2.03     9.30789    63.68699     5.03579
   458  C   4.0    0.04    4.29    4.18    11.04353    65.79051     5.68766
   459  C   4.0    0.09    3.20    3.04     9.93186    68.36628     5.12945
   460  O   6.0   -0.28    1.12    1.80    10.16360    70.05507     6.73696
   461  C   4.0   -0.03    4.28    4.16    13.66753    65.41998     4.53071
   462  C   4.0   -0.03    4.21    4.01    14.96354    63.06378     5.55301
   463  C   4.0    0.25    3.14    3.03    17.62721    62.83662     4.55966
   464  O   6.0   -0.28    1.20    1.80    18.24736    64.15921     2.70381
   465  O   6.0   -0.33    1.32    1.80    19.08726    61.23625     5.57967
   466  H   1.0    0.11    1.08    1.44     9.80489    62.58776     3.55431
   467  H   1.0    0.07    1.06    1.44    11.24488    65.74615     7.75942
   468  H   1.0    0.06    1.03    1.43    13.49827    65.27449     2.47715
   469  H   1.0    0.06    1.03    1.43    14.80808    67.09218     4.91924
   470  H   1.0    0.05    1.02    1.43    14.97114    63.07494     7.61794
   471  H   1.0    0.07    1.03    1.43    13.93991    61.38924     4.90585
   472  N   5.0   -0.19    3.25    1.97     5.10533    69.66657    10.49653
   473  C   4.0    0.05    4.31    4.22     6.27175    70.37504    12.81508
   474  C   4.0    0.09    3.27    3.05     7.32210    73.05483    12.61038
   475  O   6.0   -0.27    1.13    1.80     7.23269    74.38574    14.50836
   476  C   4.0   -0.02    4.37    4.33     8.51809    68.78871    13.34344
   477  C   4.0    0.26    3.15    3.03     7.71756    66.18713    14.36666
   478  O   6.0   -0.30    1.23    1.80     5.49343    65.83502    15.00696
   479  O   6.0   -0.33    1.40    1.80     9.53723    64.65291    14.43949
   480  H   1.0    0.12    1.05    1.44     5.69271    68.06969     9.60268
   481  H   1.0    0.07    1.06    1.44     4.91934    70.33579    14.38356
   482  H   1.0    0.07    1.03    1.43     9.64959    68.53081    11.63630
   483  H   1.0    0.06    1.04    1.43     9.70795    69.67469    14.78113
   484  N   5.0   -0.19    3.36    2.00    32.02813    30.06210    17.35437
   485  C   4.0    0.03    4.26    4.11    32.73959    29.62042    14.75987
   486  C   4.0    0.08    3.18    3.03    35.56771    30.20239    14.48529
   487  O   6.0   -0.28    1.12    1.80    36.63705    31.90105    15.67344
   488  H   1.0    0.09    1.03    1.43    32.09052    31.89874    17.90301
   489  H   1.0    0.04    1.05    1.44    32.44746    27.61876    14.34509
   490  C   4.0   -0.04    4.32    4.23    30.95942    31.18974    13.07509
   491  C   4.0   -0.02    3.65    3.20    28.33101    30.75315    14.02018
   492  C   4.0   -0.05    3.57    3.15    27.43629    31.96771    16.18374
   493  C   4.0   -0.04    3.48    3.11    26.72208    29.14249    12.75262
   494  C   4.0   -0.03    3.44    3.09    25.06042    31.47254    17.12357
   495  C   4.0   -0.05    3.44    3.09    24.28264    28.74867    13.58331
   496  C   4.0    0.07    3.46    3.10    23.46885    29.85566    15.82229
   497  O   6.0   -0.24    2.11    1.84    21.13226    29.35396    16.81112
   498  H   1.0    0.05    1.03    1.43    31.46408    33.17885    13.25126
   499  H   1.0    0.04    1.03    1.43    31.18701    30.60961    11.11627
   500  H   1.0    0.05    1.04    1.43    28.55930    33.39460    17.08495
   501  H   1.0    0.05    1.03    1.43    27.36754    28.22524    11.04813
   502  H   1.0    0.06    1.03    1.43    24.39479    32.34833    18.83274
   503  H   1.0    0.06    1.03    1.43    23.01899    27.57029    12.50256
   504  H   1.0    0.11    1.04    1.43    20.07079    28.59452    15.53112
   505  N   5.0   -0.21    3.18    1.95    19.05511    36.23006    40.92418
   506  C   4.0    0.03    4.19    3.98    18.77885    38.97248    40.51863
   507  C   4.0    0.08    3.19    3.04    16.10572    39.94857    41.06085
   508  O   6.0   -0.28    1.12    1.80    15.90829    41.92591    42.30980
   509  H   1.0    0.08    1.02    1.43    19.60909    35.16692    39.42125
   510  H   1.0    0.05    1.05    1.44    20.00768    39.96090    41.85897
   511  C   4.0   -0.04    4.26    4.11    19.48539    39.47979    37.74841
   512  C   4.0   -0.04    4.15    3.91    19.30399    42.21175    36.80718
   513  C   4.0   -0.00    4.19    3.98    21.87283    43.36528    36.10657
   514  N   5.0   -0.14    3.39    2.02    22.97841    44.74903    38.20278
   515  C   4.0    0.10    3.34    3.06    22.89746    47.23121    38.55049
   516  N   5.0   -0.18    3.26    1.97    22.11042    48.80885    36.77865
   517  N   5.0   -0.18    3.25    1.97    23.90858    48.19724    40.66170
   518  H   1.0    0.04    1.03    1.43    21.40833    38.79479    37.46181
   519  H   1.0    0.05    1.03    1.43    18.21235    38.32758    36.60516
   520  H   1.0    0.05    1.03    1.43    18.10867    42.27495    35.13650
   521  H   1.0    0.06    1.03    1.43    18.35735    43.41320    38.19148
   522  H   1.0    0.05    1.03    1.43    23.20236    41.88516    35.56380
   523  H   1.0    0.06    1.03    1.43    21.64131    44.62268    34.49790
   524  H   1.0    0.08    1.07    1.44    23.61278    43.66638    39.64885
   525  H   1.0    0.10    1.05    1.44    21.32738    48.21719    35.12253
   526  H   1.0    0.09    1.04    1.43    21.92087    50.65564    37.17590
   527  H   1.0    0.08    1.03    1.43    24.44397    47.06891    42.09918
   528  H   1.0    0.08    1.03    1.43    23.78244    50.05998    41.01688
   529  N   5.0   -0.21    3.16    1.95   -10.33331    53.62820     9.71054
   530  C   4.0    0.03    4.19    3.97    -8.30012    55.55668     9.76601
   531  C   4.0    0.08    3.21    3.04    -6.95905    55.67009     7.18613
   532  O   6.0   -0.29    1.11    1.80    -6.37320    57.72631     6.25650
   533  C   4.0   -0.04    4.22    4.05    -6.25715    54.79816    11.75616
   534  C   4.0   -0.03    4.19    3.99    -4.58062    57.07027    12.26478
   535  C   4.0    0.25    3.08    3.02    -2.36604    56.82779    14.16637
   536  O   6.0   -0.29    1.17    1.80    -2.17158    54.84461    15.38418
   537  O   6.0   -0.32    1.28    1.80    -0.90907    58.71403    14.31742
   538  H   1.0    0.08    1.02    1.43   -10.31962    52.25846    11.05083
   539  H   1.0    0.05    1.04    1.43    -9.10131    57.40965    10.18982
   540  H   1.0    0.05    1.02    1.43    -7.18119    54.18707    13.49311
   541  H   1.0    0.05    1.03    1.43    -5.14346    53.25772    10.99711
   542  H   1.0    0.06    1.03    1.43    -3.73374    57.73582    10.49888
   543  H   1.0    0.05    1.03    1.43    -5.73248    58.63328    12.98410
   544  N   5.0   -0.21    3.14    1.94    36.54424    72.70771     8.45668
   545  C   4.0    0.03    4.14    3.89    34.01076    71.49048     8.40819
   546  C   4.0    0.08    3.21    3.04    31.95429    73.57460     8.34143
   547  O   6.0   -0.31    1.16    1.80    30.09712    73.38870     6.89695
   548  H   1.0    0.08    1.02    1.43    37.63423    72.41303    10.00156
   549  H   1.0    0.05    1.05    1.44    33.83457    70.43249     6.64338
   550  C   4.0   -0.05    4.18    3.96    33.40799    69.69242    10.65043
   551  C   4.0   -0.04    4.14    3.88    30.66706    68.69692    10.81305
   552  C   4.0   -0.01    4.13    3.86    29.86138    66.76365     8.77784
   553  N   5.0   -0.14    3.39    2.02    27.13035    66.21171     8.92905
   554  C   4.0    0.10    3.33    3.06    25.80285    64.53893     7.57387
   555  N   5.0   -0.17    3.24    1.97    26.88384    62.70946     6.23893
   556  N   5.0   -0.18    3.25    1.97    23.28542    64.43894     7.88781
   557  H   1.0    0.04    1.02    1.43    34.72045    68.10547    10.56823
   558  H   1.0    0.05    1.03    1.43    33.77825    70.74709    12.38726
   559  H   1.0    0.05    1.03    1.43    30.50230    67.82612    12.67074
   560  H   1.0    0.06    1.03    1.43    29.36702    70.29982    10.76919
   561  H   1.0    0.05    1.02    1.43    30.28470    67.52966     6.91291
   562  H   1.0    0.04    1.02    1.43    30.89585    64.99763     9.04494
   563  H   1.0    0.12    1.17    1.46    26.03535    67.61628     9.71439
   564  H   1.0    0.10    1.03    1.43    28.61069    63.00211     5.47572
   565  H   1.0    0.11    1.05    1.44    25.74842    61.50825     5.24384
   566  H   1.0    0.11    1.04    1.44    22.45041    65.95469     8.69953
   567  H   1.0    0.11    1.05    1.44    22.21430    63.27834     6.80608
   568  N   5.0   -0.21    3.16    1.95    27.05645    74.57779     2.56604
   569  C   4.0    0.03    4.19    3.98    24.32917    74.50201     2.98739
   570  C   4.0    0.08    3.24    3.04    22.99005    76.88612     2.10260
   571  O   6.0   -0.28    1.11    1.80    20.85062    76.88705     1.20061
   572  C   4.0   -0.03    4.27    4.15    23.43208    74.22696     5.76358
   573  C   4.0   -0.03    4.17    3.93    24.06924    71.67681     6.91371
   574  C   4.0    0.25    3.10    3.02    23.44579    71.51403     9.78470
   575  O   6.0   -0.31    1.25    1.80    22.77517    73.51336    10.89169
   576  O   6.0   -0.33    1.31    1.80    23.71195    69.36810    10.72771
   577  H   1.0    0.12    1.06    1.44    28.19905    74.38201     4.10099
   578  H   1.0    0.05    1.05    1.44    23.53788    72.94225     1.86403
   579  H   1.0    0.06    1.03    1.43    24.31554    75.72125     6.88161
   580  H   1.0    0.06    1.04    1.43    21.38837    74.48512     5.74943
   581  H   1.0    0.05    1.02    1.43    23.05546    70.16891     5.94059
   582  H   1.0    0.06    1.03    1.43    26.09179    71.30239     6.73295
   583  H   1.0    0.09    1.07    1.44    26.44050    44.39402    -5.19020
   584  H   1.0    0.07    1.04    1.43     6.55983    31.90925     6.25774
   585  H   1.0    0.05    1.05    1.44    26.49114    36.43822    -0.25751
   586  H   1.0    0.09    1.07    1.44     8.15368    53.28608    -1.00301
   587  H   1.0    0.06    1.05    1.44    11.50585    58.80673    -1.90793
   588  H   1.0    0.09    1.08    1.44     3.73927    61.29482     2.02491
   589  H   1.0    0.06    1.04    1.43     9.03560    68.67444     3.49457
   590  H   1.0    0.11    1.08    1.44     3.44126    69.42269    10.74944
   591  H   1.0    0.07    1.04    1.43     8.04633    73.66341    10.97448
   592  H   1.0    0.10    1.12    1.45    30.43212    29.53006    17.60384
   593  H   1.0    0.05    1.05    1.44    36.63131    29.18398    13.30095
   594  H   1.0    0.09    1.07    1.44    20.22099    35.94910    42.13015
   595  H   1.0    0.06    1.04    1.43    14.60434    38.99969    40.41544
   596  H   1.0    0.09    1.07    1.44   -11.84403    54.39097     9.87923
   597  H   1.0    0.05    1.04    1.43    -6.55983    54.07328     6.25774
   598  H   1.0    0.09    1.06    1.44    37.46733    72.14996     7.14162
   599  H   1.0    0.06    1.04    1.43    32.10626    75.08822     9.46256
   600  H   1.0    0.10    1.07    1.44    27.50310    73.32059     1.51129
   601  H   1.0    0.06    1.05    1.44    23.85320    78.56146     2.24137

  Z AO/shell   Hii/eV     exponent
  1     Wed Apr 25 08:07:45 CEST 2018   EN: 2.200 GM2: 0.406  GM3: 0.0800  RAES: 1.40
     1s    -10.707211    1.230000
  6     Wed Apr 25 08:07:45 CEST 2018   EN: 2.550 GM2: 0.538  GM3: 0.1500  RAES: 3.00
     2s    -13.970922    2.096432
     2p    -10.063292    1.800000
  7     Wed Apr 25 08:07:45 CEST 2018   EN: 3.040 GM2: 0.461  GM3:-0.0640  RAES: 1.90
     2s    -16.686243    2.339881
     2p    -12.523956    2.014332
  8     Wed Apr 25 08:07:45 CEST 2018   EN: 3.440 GM2: 0.452  GM3:-0.0517  RAES: 1.80
     2s    -20.229985    2.439742
     2p    -15.503117    2.137023
 16     Tue Apr 24 11:44:34 CEST 2018   EN: 2.580 GM2: 0.340  GM3:-0.0502  RAES: 3.10
     3s    -20.029654    1.981333
     3p    -11.377694    2.025643
     3d     -0.420282    1.702555
 no old-style atom pair restraining (fixing) potential

molecular fragmentation (1/2 indicates fragments):
111111111111111111111111111111111111111111111111111111111111111111111111
111111111111111111111111111111111111111111111111111111111111111111111111
111111111111111111111111111111111111111111111111111111111111111111111111
111111111111111111111111111111111111111111112222222222222222222222222222
222222222222222222222222222222222222222222222222222222222222222222222222
222222222222222222222222222222222222222222222222222222222222222222222222
222222222222222222222222222222222222222222222222222222222222222222222222
222222222222222222222222222222222222222222222222222222222222222222222222
2222221122222222222222222
# atoms in fragment 1/2:   262   339
 fragment masses (1/2) :     1852.16     2307.47
CMA distance (Bohr)    :   9.957
constraining FC (au)   :  0.0500
           ------------------------------------------------- 
          |        Self-Consistent Charge Iterations        |
           ------------------------------------------------- 

 Ncao       : 1465
 Nao        : 1464
 Nshell     : 888
 Nel        : 1656
 T(el)      :   500.0
 intcut     :    35.0
 scfconv/Eh :  0.100E-06
   qconv/e  :  0.100E-04
 intneglect :  0.100E-08
 broydamp   :      0.400
 iter      E             dE          RMSdq      gap      omega  full diag
   1   -961.3599406 -0.961360E+03  0.494E+00    2.84       0.0  T
   2   -963.6676584 -0.230772E+01  0.235E+00    1.44       1.0  T
   3   -963.8246283 -0.156970E+00  0.127E+00    1.88       1.0  T
   4   -964.0091077 -0.184479E+00  0.305E-01    1.00       1.0  T
   5   -964.0172738 -0.816604E-02  0.152E-01    1.11       1.0  T
   6   -964.0205889 -0.331512E-02  0.615E-02    0.99       1.0  T
   7   -964.0210959 -0.507049E-03  0.320E-02    0.99       1.0  T
   8   -964.0211933 -0.973994E-04  0.149E-02    0.98       1.0  T
   9   -964.0212359 -0.425896E-04  0.683E-03    0.98       1.0  T
  10   -964.0212412 -0.527916E-05  0.354E-03    0.98       1.2  T
  11   -964.0212429 -0.168235E-05  0.159E-03    0.98       2.6  T
  12   -964.0212432 -0.346917E-06  0.793E-04    0.98       5.1  T
  13   -964.0212433 -0.835811E-07  0.405E-04    0.98      10.1  T
  14   -964.0212433 -0.190890E-07  0.177E-04    0.98      23.0  T
  15   -964.0212433 -0.564398E-08  0.887E-05    0.98      46.0  T
  16   -964.0212433 -0.106388E-08  0.435E-05    0.98      93.7  T
speedup  8.72
cpu  time for SCC   53.26 s
wall time for SCC    6.11 s

   *** convergence criteria satisfied after 16 iterations ***

          eigenvalues
 #    :         816        817        818        819        820        821        822        823
 occ. :        2.000      2.000      2.000      2.000      2.000      2.000      2.000      2.000
 eps  :        -9.956     -9.903     -9.890     -9.845     -9.776     -9.773     -9.745     -9.740
 #    :         824        825        826        827        828        829        830        831
 occ. :        2.000      2.000      2.000      2.000      2.000      0.000      0.000      0.000
 eps  :        -9.691     -9.618     -9.498     -9.432     -9.247     -8.266     -7.951     -7.930
 #    :         832        833        834        835        836        837        838        839
 occ. :        0.000      0.000      0.000      0.000      0.000      0.000      0.000      0.000
 eps  :        -7.884     -7.861     -7.814     -7.777     -7.611     -7.525     -7.471     -6.653


   #   Z            q   n(s)   n(p)   n(d)      C6AA      α(0)
   1   7 N     -0.400  1.324  4.076  0.000    30.367     8.184
   2   6 C      0.032  1.053  2.914  0.000    20.042     6.376
   3   6 C      0.279  1.042  2.679  0.000    22.272     7.728
   4   8 O     -0.475  1.717  4.758  0.000    23.243     6.464
   5   6 C     -0.066  1.059  3.007  0.000    21.742     6.636
   6   6 C     -0.007  1.051  2.956  0.000    20.673     6.467
   7   6 C     -0.112  1.039  3.074  0.000    22.690     6.789
   8   6 C     -0.115  1.045  3.070  0.000    22.757     6.801
   9   1 H      0.177  0.823  0.000  0.000     1.233     1.739
  10   1 H      0.035  0.965  0.000  0.000     2.513     2.479
  11   1 H      0.041  0.959  0.000  0.000     2.438     2.442
  12   1 H      0.040  0.960  0.000  0.000     2.451     2.448
  13   1 H      0.021  0.979  0.000  0.000     2.724     2.581
  14   1 H      0.037  0.963  0.000  0.000     2.484     2.465
  15   1 H      0.030  0.970  0.000  0.000     2.585     2.514
  16   1 H      0.044  0.956  0.000  0.000     2.392     2.418
  17   1 H      0.034  0.966  0.000  0.000     2.529     2.487
  18   1 H      0.043  0.957  0.000  0.000     2.404     2.425
  19   1 H      0.035  0.965  0.000  0.000     2.511     2.478
  20   7 N     -0.185  1.250  3.936  0.000    25.020     7.429
  21   6 C      0.015  1.069  2.916  0.000    20.318     6.418
  22   6 C      0.273  1.037  2.690  0.000    22.380     7.746
  23   8 O     -0.484  1.748  4.736  0.000    23.430     6.490
  24   6 C     -0.066  1.047  3.019  0.000    21.745     6.637
  25   6 C     -0.104  1.056  3.048  0.000    22.477     6.747
  26   6 C      0.296  1.028  2.676  0.000    21.971     7.675
  27   8 O     -0.493  1.732  4.761  0.000    23.628     6.517
  28   7 N     -0.276  1.264  4.012  0.000    27.144     7.738
  29   1 H      0.180  0.820  0.000  0.000     1.214     1.726
  30   1 H      0.079  0.921  0.000  0.000     1.991     2.207
  31   1 H      0.060  0.940  0.000  0.000     2.197     2.318
  32   1 H      0.072  0.928  0.000  0.000     2.069     2.249
  33   1 H      0.075  0.925  0.000  0.000     2.031     2.229
  34   1 H      0.060  0.940  0.000  0.000     2.201     2.320
  35   1 H      0.223  0.777  0.000  0.000     0.994     1.562
  36   1 H      0.241  0.759  0.000  0.000     0.919     1.501
  37   7 N     -0.177  1.251  3.926  0.000    24.827     7.400
  38   6 C      0.015  1.064  2.921  0.000    20.319     6.418
  39   6 C      0.260  1.047  2.694  0.000    22.624     7.789
  40   8 O     -0.482  1.729  4.752  0.000    23.384     6.483
  41   6 C     -0.025  1.065  2.960  0.000    20.988     6.516
  42   6 C     -0.063  1.053  3.010  0.000    21.705     6.633
  43   6 C     -0.132  1.045  3.087  0.000    23.083     6.851
  44   6 C     -0.108  1.039  3.069  0.000    22.622     6.784
  45   1 H      0.243  0.757  0.000  0.000     0.910     1.494
  46   1 H      0.060  0.940  0.000  0.000     2.198     2.319
  47   1 H      0.057  0.943  0.000  0.000     2.234     2.338
  48   1 H      0.040  0.960  0.000  0.000     2.454     2.450
  49   1 H      0.028  0.972  0.000  0.000     2.609     2.526
  50   1 H      0.047  0.953  0.000  0.000     2.359     2.402
  51   1 H      0.054  0.946  0.000  0.000     2.272     2.357
  52   1 H      0.055  0.945  0.000  0.000     2.253     2.347
  53   1 H      0.037  0.963  0.000  0.000     2.490     2.468
  54   1 H      0.046  0.954  0.000  0.000     2.373     2.409
  55   1 H      0.033  0.967  0.000  0.000     2.550     2.497
  56   7 N     -0.167  1.248  3.919  0.000    24.607     7.367
  57   6 C     -0.005  1.070  2.935  0.000    20.671     6.473
  58   6 C      0.266  1.034  2.699  0.000    22.508     7.770
  59   8 O     -0.478  1.737  4.741  0.000    23.299     6.472
  60   6 C     -0.098  1.062  3.035  0.000    22.358     6.731
  61   6 C     -0.107  1.065  3.043  0.000    22.548     6.761
  62   6 C     -0.039  1.058  2.981  0.000    21.361     6.597
  63   7 N     -0.144  1.214  3.930  0.000    24.110     7.293
  64   6 C      0.227  1.024  2.750  0.000    23.232     7.891
  65   7 N     -0.246  1.251  3.995  0.000    26.407     7.632
  66   7 N     -0.251  1.230  4.020  0.000    26.529     7.650
  67   1 H      0.227  0.773  0.000  0.000     0.979     1.550
  68   1 H      0.096  0.904  0.000  0.000     1.825     2.113
  69   1 H      0.076  0.924  0.000  0.000     2.022     2.224
  70   1 H      0.076  0.924  0.000  0.000     2.021     2.223
  71   1 H      0.089  0.911  0.000  0.000     1.888     2.149
  72   1 H      0.090  0.910  0.000  0.000     1.882     2.145
  73   1 H      0.078  0.922  0.000  0.000     1.997     2.210
  74   1 H      0.080  0.920  0.000  0.000     1.976     2.198
  75   1 H      0.248  0.752  0.000  0.000     0.893     1.480
  76   1 H      0.229  0.771  0.000  0.000     0.968     1.541
  77   1 H      0.228  0.772  0.000  0.000     0.973     1.545
  78   1 H      0.267  0.733  0.000  0.000     0.820     1.418
  79   1 H      0.238  0.762  0.000  0.000     0.931     1.511
  80   7 N     -0.155  1.239  3.916  0.000    24.357     7.330
  81   6 C     -0.063  1.055  3.008  0.000    21.762     6.651
  82   6 C      0.270  1.039  2.691  0.000    22.432     7.756
  83   8 O     -0.490  1.742  4.747  0.000    23.557     6.507
  84   1 H      0.249  0.751  0.000  0.000     0.889     1.477
  85   1 H      0.112  0.888  0.000  0.000     1.683     2.028
  86   1 H      0.126  0.874  0.000  0.000     1.565     1.956
  87   7 N     -0.191  1.260  3.931  0.000    25.146     7.448
  88   6 C      0.013  1.068  2.919  0.000    20.369     6.428
  89   6 C      0.278  1.045  2.676  0.000    22.291     7.731
  90   8 O     -0.530  1.755  4.775  0.000    24.448     6.629
  91   1 H      0.242  0.758  0.000  0.000     0.916     1.499
  92   1 H      0.084  0.916  0.000  0.000     1.943     2.180
  93   6 C     -0.097  1.064  3.033  0.000    22.341     6.729
  94   6 C     -0.073  1.045  3.028  0.000    21.903     6.663
  95   6 C     -0.037  1.060  2.978  0.000    21.325     6.590
  96   7 N     -0.133  1.207  3.926  0.000    23.879     7.258
  97   6 C      0.230  1.020  2.750  0.000    23.171     7.881
  98   7 N     -0.238  1.228  4.010  0.000    26.219     7.605
  99   7 N     -0.250  1.224  4.025  0.000    26.501     7.646
 100   1 H      0.103  0.897  0.000  0.000     1.754     2.071
 101   1 H      0.076  0.924  0.000  0.000     2.017     2.221
 102   1 H      0.069  0.931  0.000  0.000     2.099     2.266
 103   1 H      0.033  0.967  0.000  0.000     2.549     2.497
 104   1 H      0.111  0.889  0.000  0.000     1.690     2.033
 105   1 H      0.103  0.897  0.000  0.000     1.762     2.076
 106   1 H      0.216  0.784  0.000  0.000     1.026     1.587
 107   1 H      0.250  0.750  0.000  0.000     0.884     1.473
 108   1 H      0.230  0.770  0.000  0.000     0.964     1.538
 109   1 H      0.230  0.770  0.000  0.000     0.964     1.538
 110   1 H      0.230  0.770  0.000  0.000     0.966     1.540
 111   7 N     -0.194  1.264  3.930  0.000    25.206     7.457
 112   6 C      0.048  1.048  2.904  0.000    19.775     6.332
 113   6 C      0.277  1.052  2.671  0.000    22.317     7.737
 114   8 O     -0.530  1.757  4.773  0.000    24.454     6.630
 115   6 C     -0.056  1.049  3.006  0.000    21.572     6.612
 116   6 C     -0.116  1.068  3.048  0.000    22.727     6.788
 117   6 C      0.362  1.030  2.608  0.000    20.859     7.474
 118   8 O     -0.671  1.784  4.887  0.000    27.934     7.086
 119   8 O     -0.646  1.773  4.874  0.000    27.288     7.004
 120   1 H      0.253  0.747  0.000  0.000     0.870     1.461
 121   1 H      0.037  0.963  0.000  0.000     2.496     2.471
 122   1 H      0.061  0.939  0.000  0.000     2.192     2.315
 123   1 H      0.017  0.983  0.000  0.000     2.783     2.609
 124   1 H      0.088  0.912  0.000  0.000     1.895     2.153
 125   1 H      0.030  0.970  0.000  0.000     2.581     2.513
 126   7 N     -0.189  1.262  3.927  0.000    25.096     7.440
 127   6 C      0.022  1.060  2.918  0.000    20.210     6.401
 128   6 C      0.271  1.047  2.682  0.000    22.421     7.754
 129   8 O     -0.514  1.754  4.759  0.000    24.087     6.580
 130   6 C     -0.102  1.067  3.035  0.000    22.441     6.745
 131   6 C     -0.085  1.060  3.025  0.000    22.126     6.698
 132   6 C     -0.043  1.070  2.972  0.000    21.431     6.607
 133   7 N     -0.171  1.228  3.943  0.000    24.691     7.380
 134   6 C      0.232  1.015  2.753  0.000    23.129     7.874
 135   7 N     -0.266  1.233  4.033  0.000    26.887     7.701
 136   7 N     -0.283  1.246  4.036  0.000    27.299     7.760
 137   1 H      0.244  0.756  0.000  0.000     0.906     1.491
 138   1 H      0.055  0.945  0.000  0.000     2.254     2.348
 139   1 H      0.090  0.910  0.000  0.000     1.880     2.144
 140   1 H      0.100  0.900  0.000  0.000     1.786     2.090
 141   1 H      0.071  0.929  0.000  0.000     2.071     2.250
 142   1 H      0.062  0.938  0.000  0.000     2.179     2.308
 143   1 H      0.123  0.877  0.000  0.000     1.592     1.973
 144   1 H      0.076  0.924  0.000  0.000     2.017     2.221
 145   1 H      0.228  0.772  0.000  0.000     0.974     1.546
 146   1 H      0.246  0.754  0.000  0.000     0.897     1.484
 147   1 H      0.236  0.764  0.000  0.000     0.939     1.518
 148   1 H      0.213  0.787  0.000  0.000     1.040     1.597
 149   1 H      0.244  0.756  0.000  0.000     0.909     1.493
 150   7 N     -0.171  1.246  3.925  0.000    24.697     7.381
 151   6 C      0.033  1.050  2.917  0.000    20.015     6.370
 152   6 C      0.276  1.050  2.673  0.000    22.324     7.737
 153   8 O     -0.499  1.743  4.755  0.000    23.757     6.535
 154   6 C     -0.084  1.065  3.020  0.000    22.106     6.694
 155   6 C      0.004  1.086  2.910  0.000    27.936     8.669
 156   6 C     -0.038  1.079  2.959  0.000    28.949     8.825
 157   6 C     -0.047  1.085  2.962  0.000    29.170     8.857
 158   6 C     -0.036  1.079  2.957  0.000    28.898     8.815
 159   6 C     -0.045  1.086  2.959  0.000    29.120     8.849
 160   6 C     -0.036  1.080  2.957  0.000    28.907     8.818
 161   1 H      0.245  0.755  0.000  0.000     0.903     1.489
 162   1 H      0.075  0.925  0.000  0.000     2.027     2.227
 163   1 H      0.084  0.916  0.000  0.000     1.943     2.180
 164   1 H      0.066  0.934  0.000  0.000     2.135     2.285
 165   1 H      0.028  0.972  0.000  0.000     2.616     2.530
 166   1 H      0.029  0.971  0.000  0.000     2.594     2.519
 167   1 H      0.063  0.937  0.000  0.000     2.168     2.302
 168   1 H      0.054  0.946  0.000  0.000     2.268     2.355
 169   1 H      0.060  0.940  0.000  0.000     2.200     2.320
 170   7 N     -0.202  1.272  3.931  0.000    25.397     7.485
 171   6 C      0.030  1.072  2.897  0.000    20.079     6.383
 172   6 C      0.279  1.049  2.672  0.000    22.276     7.728
 173   8 O     -0.516  1.744  4.773  0.000    24.145     6.588
 174   1 H      0.227  0.773  0.000  0.000     0.978     1.550
 175   1 H      0.074  0.926  0.000  0.000     2.041     2.234
 176   6 C     -0.036  1.042  2.993  0.000    21.206     6.556
 177   6 C     -0.099  1.069  3.030  0.000    22.390     6.738
 178   6 C      0.368  1.025  2.606  0.000    20.754     7.455
 179   8 O     -0.672  1.794  4.879  0.000    27.963     7.090
 180   8 O     -0.610  1.744  4.867  0.000    26.378     6.886
 181   1 H      0.028  0.972  0.000  0.000     2.611     2.527
 182   1 H      0.006  0.994  0.000  0.000     2.958     2.690
 183   1 H      0.035  0.965  0.000  0.000     2.517     2.481
 184   1 H      0.048  0.952  0.000  0.000     2.351     2.398
 185   7 N     -0.186  1.258  3.928  0.000    25.031     7.431
 186   6 C      0.038  1.061  2.901  0.000    19.946     6.359
 187   6 C      0.275  1.044  2.680  0.000    22.342     7.741
 188   8 O     -0.521  1.767  4.754  0.000    24.254     6.603
 189   6 C     -0.062  1.047  3.015  0.000    21.644     6.615
 190   6 C      0.008  1.049  2.944  0.000    20.444     6.437
 191  16 S     -0.229  1.913  4.262  0.054   150.870    20.673
 192   6 C     -0.068  1.058  3.011  0.000    21.883     6.673
 193   1 H      0.219  0.781  0.000  0.000     1.016     1.579
 194   1 H      0.041  0.959  0.000  0.000     2.440     2.443
 195   1 H      0.059  0.941  0.000  0.000     2.215     2.327
 196   1 H      0.072  0.928  0.000  0.000     2.063     2.246
 197   1 H      0.039  0.961  0.000  0.000     2.463     2.454
 198   1 H      0.033  0.967  0.000  0.000     2.549     2.497
 199   1 H      0.089  0.911  0.000  0.000     1.891     2.151
 200   1 H      0.071  0.929  0.000  0.000     2.080     2.255
 201   1 H      0.064  0.936  0.000  0.000     2.151     2.293
 202   7 N     -0.171  1.241  3.930  0.000    24.694     7.380
 203   6 C      0.032  1.053  2.915  0.000    20.030     6.371
 204   6 C      0.281  1.039  2.680  0.000    22.235     7.722
 205   8 O     -0.506  1.749  4.757  0.000    23.912     6.556
 206   6 C     -0.078  1.059  3.018  0.000    21.982     6.675
 207   6 C      0.013  1.081  2.906  0.000    27.726     8.637
 208   6 C     -0.038  1.080  2.958  0.000    28.943     8.824
 209   6 C     -0.037  1.082  2.955  0.000    28.919     8.820
 210   6 C     -0.032  1.072  2.960  0.000    28.796     8.801
 211   6 C     -0.046  1.082  2.964  0.000    29.139     8.853
 212   6 C     -0.036  1.075  2.962  0.000    28.905     8.817
 213   1 H      0.228  0.772  0.000  0.000     0.972     1.545
 214   1 H      0.059  0.941  0.000  0.000     2.210     2.325
 215   1 H      0.071  0.929  0.000  0.000     2.077     2.254
 216   1 H      0.078  0.922  0.000  0.000     1.995     2.209
 217   1 H      0.020  0.980  0.000  0.000     2.727     2.582
 218   1 H      0.051  0.949  0.000  0.000     2.306     2.374
 219   1 H      0.033  0.967  0.000  0.000     2.539     2.492
 220   1 H      0.054  0.946  0.000  0.000     2.271     2.357
 221   1 H      0.043  0.957  0.000  0.000     2.406     2.426
 222   7 N     -0.187  1.252  3.935  0.000    25.046     7.433
 223   6 C      0.017  1.071  2.912  0.000    20.300     6.417
 224   6 C      0.274  1.050  2.676  0.000    22.359     7.743
 225   8 O     -0.497  1.750  4.747  0.000    23.709     6.528
 226   1 H      0.224  0.776  0.000  0.000     0.991     1.559
 227   1 H      0.098  0.902  0.000  0.000     1.801     2.099
 228   6 C     -0.077  1.057  3.020  0.000    21.971     6.674
 229   6 C     -0.077  1.053  3.023  0.000    21.971     6.674
 230   6 C     -0.026  1.057  2.970  0.000    21.135     6.562
 231   7 N     -0.140  1.226  3.914  0.000    24.041     7.282
 232   6 C      0.228  1.024  2.748  0.000    23.204     7.886
 233   7 N     -0.236  1.244  3.992  0.000    26.182     7.600
 234   7 N     -0.259  1.250  4.009  0.000    26.723     7.678
 235   1 H      0.088  0.912  0.000  0.000     1.903     2.157
 236   1 H      0.049  0.951  0.000  0.000     2.337     2.391
 237   1 H      0.081  0.919  0.000  0.000     1.972     2.196
 238   1 H      0.049  0.951  0.000  0.000     2.333     2.389
 239   1 H      0.080  0.920  0.000  0.000     1.983     2.202
 240   1 H      0.112  0.888  0.000  0.000     1.678     2.026
 241   1 H      0.218  0.782  0.000  0.000     1.021     1.583
 242   1 H      0.245  0.755  0.000  0.000     0.902     1.488
 243   1 H      0.262  0.738  0.000  0.000     0.839     1.435
 244   1 H      0.239  0.761  0.000  0.000     0.926     1.507
 245   1 H      0.264  0.736  0.000  0.000     0.832     1.429
 246   7 N     -0.179  1.260  3.919  0.000    24.879     7.408
 247   6 C      0.035  1.072  2.893  0.000    19.996     6.369
 248   6 C      0.215  1.086  2.699  0.000    23.453     7.931
 249   8 O     -0.364  1.750  4.613  0.000    20.970     6.140
 250   6 C     -0.044  1.052  2.992  0.000    21.352     6.579
 251   6 C     -0.091  1.066  3.025  0.000    22.244     6.715
 252   6 C      0.371  1.024  2.604  0.000    20.706     7.447
 253   8 O     -0.643  1.773  4.871  0.000    27.204     6.993
 254   8 O     -0.663  1.777  4.886  0.000    27.724     7.059
 255   1 H      0.209  0.791  0.000  0.000     1.060     1.613
 256   1 H      0.087  0.913  0.000  0.000     1.906     2.159
 257   1 H      0.054  0.946  0.000  0.000     2.270     2.356
 258   1 H      0.035  0.965  0.000  0.000     2.518     2.482
 259   1 H      0.023  0.977  0.000  0.000     2.687     2.563
 260   1 H      0.035  0.965  0.000  0.000     2.517     2.481
 261   8 O     -0.626  1.734  4.892  0.000    25.807     6.856
 262   1 H      0.290  0.710  0.000  0.000     0.751     1.361
 263   1 H      0.310  0.690  0.000  0.000     0.693     1.308
 264   8 O     -0.630  1.756  4.874  0.000    25.908     6.870
 265   1 H      0.345  0.655  0.000  0.000     0.600     1.217
 266   1 H      0.302  0.698  0.000  0.000     0.716     1.329
 267   8 O     -0.638  1.757  4.881  0.000    26.119     6.898
 268   1 H      0.309  0.691  0.000  0.000     0.696     1.310
 269   1 H      0.303  0.697  0.000  0.000     0.711     1.324
 270   8 O     -0.619  1.729  4.890  0.000    25.649     6.835
 271   1 H      0.321  0.679  0.000  0.000     0.660     1.276
 272   1 H      0.298  0.702  0.000  0.000     0.726     1.339
 273   8 O     -0.635  1.747  4.888  0.000    26.027     6.886
 274   1 H      0.334  0.666  0.000  0.000     0.627     1.243
 275   1 H      0.303  0.697  0.000  0.000     0.713     1.326
 276   8 O     -0.620  1.755  4.866  0.000    25.680     6.839
 277   1 H      0.321  0.679  0.000  0.000     0.661     1.277
 278   1 H      0.312  0.688  0.000  0.000     0.687     1.302
 279   8 O     -0.637  1.778  4.859  0.000    26.086     6.893
 280   1 H      0.342  0.658  0.000  0.000     0.607     1.224
 281   1 H      0.331  0.669  0.000  0.000     0.636     1.253
 282   8 O     -0.591  1.717  4.874  0.000    24.980     6.746
 283   1 H      0.299  0.701  0.000  0.000     0.723     1.336
 284   1 H      0.302  0.698  0.000  0.000     0.714     1.327
 285   8 O     -0.660  1.782  4.877  0.000    26.660     6.969
 286   1 H      0.330  0.670  0.000  0.000     0.637     1.254
 287   1 H      0.330  0.670  0.000  0.000     0.637     1.254
 288   8 O     -0.597  1.748  4.848  0.000    25.106     6.762
 289   1 H      0.334  0.666  0.000  0.000     0.626     1.244
 290   1 H      0.317  0.683  0.000  0.000     0.673     1.289
 291   8 O     -0.653  1.768  4.885  0.000    26.493     6.947
 292   1 H      0.321  0.679  0.000  0.000     0.662     1.278
 293   1 H      0.317  0.683  0.000  0.000     0.672     1.288
 294   8 O     -0.645  1.772  4.874  0.000    26.291     6.920
 295   1 H      0.302  0.698  0.000  0.000     0.715     1.328
 296   1 H      0.321  0.679  0.000  0.000     0.660     1.276
 297   8 O     -0.643  1.761  4.883  0.000    26.250     6.915
 298   1 H      0.331  0.669  0.000  0.000     0.634     1.250
 299   1 H      0.316  0.684  0.000  0.000     0.675     1.291
 300   8 O     -0.623  1.747  4.876  0.000    25.744     6.848
 301   1 H      0.312  0.688  0.000  0.000     0.686     1.301
 302   1 H      0.327  0.673  0.000  0.000     0.646     1.262
 303   8 O     -0.625  1.757  4.869  0.000    25.794     6.855
 304   1 H      0.301  0.699  0.000  0.000     0.718     1.331
 305   1 H      0.296  0.704  0.000  0.000     0.732     1.344
 306   8 O     -0.632  1.761  4.870  0.000    25.959     6.876
 307   1 H      0.283  0.717  0.000  0.000     0.774     1.382
 308   1 H      0.328  0.672  0.000  0.000     0.644     1.260
 309   8 O     -0.616  1.744  4.872  0.000    25.580     6.826
 310   1 H      0.320  0.680  0.000  0.000     0.663     1.279
 311   1 H      0.308  0.692  0.000  0.000     0.697     1.311
 312   8 O     -0.641  1.742  4.899  0.000    26.188     6.907
 313   1 H      0.313  0.687  0.000  0.000     0.683     1.299
 314   1 H      0.309  0.691  0.000  0.000     0.694     1.308
 315   8 O     -0.633  1.756  4.877  0.000    25.996     6.881
 316   1 H      0.323  0.677  0.000  0.000     0.657     1.273
 317   1 H      0.294  0.706  0.000  0.000     0.739     1.351
 318   8 O     -0.638  1.761  4.876  0.000    26.108     6.896
 319   1 H      0.316  0.684  0.000  0.000     0.675     1.290
 320   1 H      0.319  0.681  0.000  0.000     0.665     1.281
 321   8 O     -0.600  1.740  4.860  0.000    25.185     6.773
 322   1 H      0.322  0.678  0.000  0.000     0.659     1.275
 323   1 H      0.292  0.708  0.000  0.000     0.746     1.357
 324   8 O     -0.605  1.742  4.863  0.000    25.304     6.789
 325   1 H      0.339  0.661  0.000  0.000     0.615     1.232
 326   1 H      0.353  0.647  0.000  0.000     0.581     1.198
 327   8 O     -0.638  1.770  4.869  0.000    26.121     6.898
 328   1 H      0.311  0.689  0.000  0.000     0.688     1.303
 329   1 H      0.328  0.672  0.000  0.000     0.643     1.260
 330   8 O     -0.642  1.750  4.892  0.000    26.215     6.910
 331   1 H      0.314  0.686  0.000  0.000     0.681     1.296
 332   1 H      0.312  0.688  0.000  0.000     0.686     1.301
 333   7 N     -0.185  1.253  3.932  0.000    24.989     7.424
 334   6 C     -0.024  1.083  2.941  0.000    21.033     6.534
 335   6 C      0.262  1.037  2.701  0.000    22.584     7.782
 336   8 O     -0.465  1.724  4.741  0.000    23.033     6.435
 337   6 C     -0.073  1.055  3.018  0.000    21.885     6.660
 338   6 C     -0.101  1.067  3.035  0.000    22.438     6.745
 339   6 C      0.366  1.028  2.606  0.000    20.786     7.461
 340   8 O     -0.625  1.762  4.863  0.000    26.742     6.933
 341   8 O     -0.665  1.790  4.876  0.000    27.780     7.066
 342   1 H      0.286  0.714  0.000  0.000     0.758     1.364
 343   1 H      0.318  0.682  0.000  0.000     0.662     1.275
 344   1 H      0.288  0.712  0.000  0.000     0.750     1.357
 345   1 H      0.111  0.889  0.000  0.000     1.688     2.032
 346   1 H      0.079  0.921  0.000  0.000     1.985     2.203
 347   1 H      0.076  0.924  0.000  0.000     2.018     2.222
 348   1 H      0.018  0.982  0.000  0.000     2.760     2.598
 349   1 H      0.026  0.974  0.000  0.000     2.644     2.543
 350   7 N     -0.130  1.229  3.900  0.000    23.815     7.248
 351   6 C      0.002  1.069  2.929  0.000    20.540     6.452
 352   6 C      0.265  1.047  2.688  0.000    22.525     7.772
 353   8 O     -0.496  1.760  4.736  0.000    23.702     6.527
 354   1 H      0.218  0.782  0.000  0.000     1.019     1.582
 355   1 H      0.102  0.898  0.000  0.000     1.767     2.079
 356   6 C     -0.081  1.053  3.027  0.000    22.027     6.680
 357   6 C     -0.004  1.074  2.930  0.000    28.121     8.699
 358   6 C     -0.053  1.084  2.969  0.000    29.309     8.878
 359   6 C     -0.043  1.081  2.962  0.000    29.066     8.841
 360   6 C     -0.065  1.075  2.990  0.000    29.617     8.924
 361   6 C     -0.086  1.080  3.006  0.000    30.161     9.006
 362   6 C      0.136  1.045  2.819  0.000    25.020     8.198
 363   8 O     -0.411  1.704  4.707  0.000    21.065     6.196
 364   1 H      0.062  0.938  0.000  0.000     2.179     2.308
 365   1 H      0.059  0.941  0.000  0.000     2.207     2.323
 366   1 H      0.051  0.949  0.000  0.000     2.311     2.377
 367   1 H      0.047  0.953  0.000  0.000     2.353     2.399
 368   1 H      0.084  0.916  0.000  0.000     1.935     2.176
 369   1 H      0.063  0.937  0.000  0.000     2.159     2.298
 370   1 H      0.323  0.677  0.000  0.000     0.657     1.273
 371   7 N     -0.184  1.257  3.926  0.000    24.983     7.423
 372   6 C      0.024  1.061  2.915  0.000    20.184     6.398
 373   6 C      0.256  1.052  2.692  0.000    22.688     7.800
 374   8 O     -0.497  1.735  4.762  0.000    23.719     6.530
 375   6 C     -0.071  1.050  3.021  0.000    21.850     6.652
 376   6 C      0.011  1.078  2.911  0.000    27.766     8.643
 377   6 C     -0.044  1.082  2.962  0.000    29.093     8.845
 378   6 C     -0.047  1.084  2.964  0.000    29.171     8.857
 379   6 C     -0.042  1.079  2.963  0.000    29.050     8.839
 380   6 C     -0.042  1.080  2.962  0.000    29.034     8.836
 381   6 C     -0.043  1.079  2.964  0.000    29.074     8.842
 382   1 H      0.245  0.755  0.000  0.000     0.905     1.490
 383   1 H      0.081  0.919  0.000  0.000     1.970     2.195
 384   1 H      0.053  0.947  0.000  0.000     2.288     2.365
 385   1 H      0.057  0.943  0.000  0.000     2.230     2.335
 386   1 H      0.048  0.952  0.000  0.000     2.344     2.394
 387   1 H      0.044  0.956  0.000  0.000     2.401     2.423
 388   1 H      0.054  0.946  0.000  0.000     2.267     2.354
 389   1 H      0.038  0.962  0.000  0.000     2.472     2.458
 390   1 H      0.052  0.948  0.000  0.000     2.299     2.371
 391   7 N     -0.163  1.234  3.929  0.000    24.520     7.354
 392   6 C      0.013  1.053  2.934  0.000    20.337     6.417
 393   6 C      0.262  1.041  2.697  0.000    22.576     7.781
 394   8 O     -0.496  1.743  4.753  0.000    23.686     6.525
 395   1 H      0.225  0.775  0.000  0.000     0.989     1.558
 396   1 H      0.089  0.911  0.000  0.000     1.890     2.150
 397   6 C      0.120  1.034  2.846  0.000    18.683     6.165
 398   8 O     -0.484  1.721  4.763  0.000    22.547     6.410
 399   6 C     -0.152  1.043  3.109  0.000    23.481     6.908
 400   1 H      0.041  0.959  0.000  0.000     2.435     2.441
 401   1 H      0.337  0.663  0.000  0.000     0.620     1.237
 402   1 H      0.059  0.941  0.000  0.000     2.216     2.328
 403   1 H      0.080  0.920  0.000  0.000     1.984     2.202
 404   1 H      0.063  0.937  0.000  0.000     2.166     2.301
 405   7 N     -0.154  1.243  3.910  0.000    24.325     7.325
 406   6 C      0.015  1.055  2.930  0.000    20.323     6.419
 407   6 C      0.206  1.074  2.720  0.000    23.630     7.962
 408   8 O     -0.358  1.745  4.613  0.000    20.852     6.122
 409   6 C     -0.067  1.060  3.007  0.000    21.757     6.638
 410   6 C     -0.013  1.052  2.961  0.000    20.780     6.484
 411   6 C     -0.134  1.043  3.091  0.000    23.113     6.852
 412   6 C     -0.115  1.044  3.071  0.000    22.745     6.799
 413   1 H      0.228  0.772  0.000  0.000     0.973     1.546
 414   1 H      0.103  0.897  0.000  0.000     1.757     2.073
 415   1 H      0.067  0.933  0.000  0.000     2.121     2.277
[...]
   251  C   3.987    C  250 1.014    H  259 0.970    H  260 0.966    C  252 0.917    O  253 0.053    O  254 0.052
   252  C   3.934    O  253 1.519    O  254 1.472    C  251 0.917
   253  O   1.807    C  252 1.519    O  254 0.215    C  251 0.053
   254  O   1.763    C  252 1.472    O  253 0.215    C  251 0.052
   255  H   0.956    N  246 0.904
   256  H   0.992    C  247 0.952
   257  H   0.997    C  250 0.967
   258  H   0.999    C  250 0.977
   259  H   0.999    C  251 0.970
   260  H   0.999    C  251 0.966
   261  O   1.833    H  262 0.907    H  263 0.837
   262  H   0.916    O  261 0.907
   263  H   0.904    O  261 0.837    O  465 0.062
   264  O   1.849    H  266 0.900    H  265 0.845
   265  H   0.881    O  264 0.845
   266  H   0.909    O  264 0.900
   267  O   1.796    H  269 0.907    H  268 0.865
   268  H   0.905    O  267 0.865
   269  H   0.908    O  267 0.907
   270  O   1.840    H  272 0.906    H  271 0.851
   271  H   0.897    O  270 0.851
   272  H   0.911    O  270 0.906
   273  O   1.823    H  275 0.904    H  274 0.859
   274  H   0.888    O  273 0.859
   275  H   0.908    O  273 0.904
   276  O   1.845    H  277 0.896    H  278 0.880
   277  H   0.897    O  276 0.896
   278  H   0.903    O  276 0.880
   279  O   1.864    H  280 0.871    H  281 0.864    H  120 0.054
   280  H   0.883    O  279 0.871
   281  H   0.891    O  279 0.864
   282  O   1.850    H  284 0.904    H  283 0.887
   283  H   0.910    O  282 0.887
   284  H   0.909    O  282 0.904
   285  O   1.783    H  287 0.891    H  286 0.890
   286  H   0.891    O  285 0.890
   287  H   0.891    O  285 0.891
   288  O   1.919    H  290 0.871    H  289 0.834    H  436 0.071
   289  H   0.888    O  288 0.834
   290  H   0.900    O  288 0.871
   291  O   1.792    H  293 0.899    H  292 0.868
   292  H   0.897    O  291 0.868
   293  H   0.900    O  291 0.899
   294  O   1.794    H  295 0.904    H  296 0.859
   295  H   0.909    O  294 0.904
   296  H   0.897    O  294 0.859
   297  O   1.863    H  298 0.887    H  299 0.823
   298  H   0.890    O  297 0.887
   299  H   0.900    O  297 0.823    O  479 0.069
   300  O   1.827    H  301 0.900    H  302 0.891
   301  H   0.903    O  300 0.900
   302  H   0.893    O  300 0.891
   303  O   1.806    H  305 0.900    H  304 0.875
   304  H   0.909    O  303 0.875
   305  H   0.912    O  303 0.900
   306  O   1.802    H  307 0.913    H  308 0.861
   307  H   0.920    O  306 0.913
   308  H   0.893    O  306 0.861
   309  O   1.848    H  310 0.896    H  311 0.882
   310  H   0.897    O  309 0.896
   311  H   0.905    O  309 0.882
   312  O   1.834    H  314 0.891    H  313 0.814
   313  H   0.902    O  312 0.814    O  537 0.078
   314  H   0.904    O  312 0.891
   315  O   1.800    H  316 0.892    H  317 0.890
   316  H   0.896    O  315 0.892
   317  H   0.914    O  315 0.890
   318  O   1.803    H  319 0.895    H  320 0.879
   319  H   0.900    O  318 0.895
   320  H   0.898    O  318 0.879
   321  O   1.845    H  323 0.911    H  322 0.879
   322  H   0.896    O  321 0.879
   323  H   0.915    O  321 0.911
   324  O   1.924    H  325 0.881    H  326 0.873    H  343 0.114
   325  H   0.885    O  324 0.881
   326  H   0.875    O  324 0.873
   327  O   1.797    H  328 0.901    H  329 0.892
   328  H   0.903    O  327 0.901
   329  H   0.893    O  327 0.892
   330  O   1.814    H  332 0.900    H  331 0.852
   331  H   0.901    O  330 0.852
   332  H   0.903    O  330 0.900
   333  N   3.624    C  334 0.965    H  342 0.899    H  344 0.880    H  343 0.775
   334  C   3.944    C  337 0.981    N  333 0.965    H  345 0.955    C  335 0.934    O  336 0.056
   335  C   3.954    O  336 1.590    N  350 1.356    C  334 0.934
   336  O   1.984    C  335 1.590    N  350 0.199    C  334 0.056
   337  C   3.983    C  338 1.010    C  334 0.981    H  347 0.969    H  346 0.961
   338  C   3.987    C  337 1.010    H  349 0.975    H  348 0.969    C  339 0.900    O  340 0.058    O  341 0.057
   339  C   3.931    O  340 1.509    O  341 1.499    C  338 0.900
   340  O   1.804    C  339 1.509    O  341 0.216    C  338 0.058
   341  O   1.792    C  339 1.499    O  340 0.216    C  338 0.057
   342  H   0.918    N  333 0.899
   343  H   0.899    N  333 0.775    O  324 0.114
   344  H   0.917    N  333 0.880
   345  H   0.988    C  334 0.955
   346  H   0.993    C  337 0.961
   347  H   0.994    C  337 0.969
   348  H   1.000    C  338 0.969
   349  H   0.999    C  338 0.975
   350  N   3.527    C  335 1.356    C  351 0.981    H  354 0.911    O  336 0.199
   351  C   3.957    N  350 0.981    C  356 0.954    H  355 0.945    C  352 0.933    O  353 0.053
   352  C   3.946    O  353 1.632    N  371 1.307    C  351 0.933
   353  O   1.954    C  352 1.632    N  371 0.206    C  351 0.053
   354  H   0.952    N  350 0.911
   355  H   0.990    C  351 0.945
   356  C   3.986    C  357 1.009    H  365 0.970    H  364 0.968    C  351 0.954
   357  C   3.987    C  359 1.423    C  358 1.388    C  356 1.009    C  362 0.095
   358  C   3.990    C  360 1.463    C  357 1.388    H  366 0.963    C  361 0.108
   359  C   3.990    C  361 1.439    C  357 1.423    H  367 0.967    C  360 0.103
   360  C   3.985    C  358 1.463    C  362 1.368    H  368 0.961    C  359 0.103
   361  C   3.987    C  359 1.439    C  362 1.375    H  369 0.959    C  358 0.108    O  363 0.058
   362  C   3.942    C  361 1.375    C  360 1.368    O  363 1.064    C  357 0.095
   363  O   2.100    C  362 1.064    H  370 0.866    C  361 0.058
   364  H   0.996    C  356 0.968
   365  H   0.996    C  356 0.970
   366  H   0.997    C  358 0.963
   367  H   0.998    C  359 0.967
   368  H   0.993    C  360 0.961
   369  H   0.996    C  361 0.959
   370  H   0.896    O  363 0.866
   371  N   3.470    C  352 1.307    C  372 0.988    H  382 0.875    O  353 0.206
   372  C   3.971    N  371 0.988    C  375 0.954    H  383 0.952    C  373 0.947
   373  C   3.946    O  374 1.580    N  391 1.325    C  372 0.947
   374  O   1.946    C  373 1.580    N  391 0.189
   375  C   3.989    C  376 1.013    H  384 0.965    H  385 0.963    C  372 0.954
   376  C   3.988    C  378 1.427    C  377 1.395    C  375 1.013    C  381 0.108
   377  C   3.990    C  379 1.461    C  376 1.395    H  386 0.967    C  380 0.110
   378  C   3.989    C  376 1.427    C  380 1.426    H  387 0.968    C  379 0.112
   379  C   3.991    C  377 1.461    C  381 1.418    H  388 0.963    C  378 0.112
   380  C   3.992    C  381 1.453    C  378 1.426    H  389 0.969    C  377 0.110
   381  C   3.990    C  380 1.453    C  379 1.418    H  390 0.965    C  376 0.108
   382  H   0.940    N  371 0.875
   383  H   0.993    C  372 0.952
   384  H   0.997    C  375 0.965
   385  H   0.996    C  375 0.963
   386  H   0.998    C  377 0.967
   387  H   0.998    C  378 0.968
   388  H   0.997    C  379 0.963
   389  H   0.998    C  380 0.969
   390  H   0.997    C  381 0.965
   391  N   3.491    C  373 1.325    C  392 0.993    H  395 0.896    O  374 0.189
   392  C   3.962    N  391 0.993    C  397 0.952    H  396 0.940    C  393 0.932
   393  C   3.955    O  394 1.580    N  405 1.358    C  392 0.932
   394  O   1.925    C  393 1.580    N  405 0.201
   395  H   0.949    N  391 0.896
   396  H   0.992    C  392 0.940
   397  C   3.955    C  399 1.004    O  398 0.992    H  400 0.953    C  392 0.952
   398  O   1.939    C  397 0.992    H  401 0.868
   399  C   3.988    C  397 1.004    H  402 0.983    H  404 0.979    H  403 0.969
   400  H   0.997    C  397 0.953
   401  H   0.886    O  398 0.868
   402  H   0.996    C  399 0.983
   403  H   0.994    C  399 0.969
   404  H   0.996    C  399 0.979
   405  N   3.513    C  393 1.358    C  406 0.966    H  413 0.891    O  394 0.201
   406  C   3.961    C  407 0.995    N  405 0.966    H  414 0.948    C  409 0.941    O  408 0.054
   407  C   3.903    O  408 1.887    C  406 0.995    H  585 0.948
   408  O   2.062    C  407 1.887    C  406 0.054
   409  C   3.985    C  410 1.002    H  416 0.971    H  415 0.963    C  406 0.941
   410  C   3.994    C  411 1.012    C  409 1.002    C  412 0.998    H  417 0.966
   411  C   3.992    C  410 1.012    H  418 0.982    H  420 0.981    H  419 0.978
   412  C   3.993    C  410 0.998    H  423 0.987    H  421 0.986    H  422 0.985
   413  H   0.948    N  405 0.891
   414  H   0.989    C  406 0.948
   415  H   0.995    C  409 0.963
   416  H   0.997    C  409 0.971
   417  H   0.998    C  410 0.966
   418  H   0.998    C  411 0.982
   419  H   0.997    C  411 0.978
   420  H   0.997    C  411 0.981
   421  H   0.998    C  412 0.986
   422  H   0.998    C  412 0.985
   423  H   0.999    C  412 0.987
   424  N   2.993    C  425 1.006    H  586 0.954    H  432 0.950
   425  C   3.987    N  424 1.006    C  426 0.992    C  428 0.956    H  433 0.951
   426  C   3.887    O  427 1.859    C  425 0.992    H  587 0.956
   427  O   2.018    C  426 1.859
   428  C   3.989    H  435 0.972    C  425 0.956    C  429 0.955    H  434 0.949    O  430 0.052
   429  C   3.957    O  430 1.612    N  431 1.365    C  428 0.955
   430  O   1.922    C  429 1.612    N  431 0.207    C  428 0.052
   431  N   3.414    C  429 1.365    H  437 0.917    H  436 0.835    O  430 0.207
   432  H   0.968    N  424 0.950
   433  H   0.997    C  425 0.951
   434  H   0.994    C  428 0.949
   435  H   0.995    C  428 0.972
   436  H   0.936    N  431 0.835    O  288 0.071
   437  H   0.959    N  431 0.917
   438  N   2.990    C  439 1.006    H  588 0.959    H  446 0.952
   439  C   3.984    N  438 1.006    C  442 0.980    C  440 0.963    H  447 0.949
   440  C   3.942    O  441 1.626    N  457 1.271    C  439 0.963
   441  O   1.953    C  440 1.626    N  457 0.195
   442  C   3.991    C  443 0.983    C  439 0.980    H  449 0.971    H  448 0.969
   443  C   3.994    C  444 1.013    C  445 1.009    C  442 0.983    H  450 0.967
   444  C   3.993    C  443 1.013    H  453 0.981    H  451 0.980    H  452 0.979
   445  C   3.994    C  443 1.009    H  454 0.986    H  455 0.985    H  456 0.984
   446  H   0.974    N  438 0.952
   447  H   0.998    C  439 0.949
   448  H   0.997    C  442 0.969
   449  H   0.998    C  442 0.971
   450  H   0.998    C  443 0.967
   451  H   0.998    C  444 0.980
   452  H   0.997    C  444 0.979
   453  H   0.997    C  444 0.981
   454  H   0.999    C  445 0.986
   455  H   0.999    C  445 0.985
   456  H   1.000    C  445 0.984
   457  N   3.441    C  440 1.271    C  458 0.971    H  466 0.903    O  441 0.195
   458  C   3.966    C  459 0.989    N  457 0.971    C  461 0.961    H  467 0.945    O  460 0.053
   459  C   3.900    O  460 1.883    C  458 0.989    H  589 0.955
   460  O   2.025    C  459 1.883    C  458 0.053
   461  C   3.984    C  462 1.004    H  468 0.973    H  469 0.971    C  458 0.961
   462  C   3.989    C  461 1.004    H  470 0.960    C  463 0.953    H  471 0.950
   463  C   3.937    O  464 1.543    O  465 1.404    C  462 0.953
   464  O   1.828    C  463 1.543    O  465 0.205
   465  O   1.847    C  463 1.404    O  464 0.205    H  263 0.062
   466  H   0.948    N  457 0.903
   467  H   0.992    C  458 0.945
   468  H   0.997    C  461 0.973
   469  H   0.996    C  461 0.971
   470  H   0.996    C  462 0.960
   471  H   0.996    C  462 0.950
   472  N   2.998    C  473 1.021    H  590 0.958    H  480 0.934
   473  C   3.987    N  472 1.021    C  474 0.976    C  476 0.967    H  481 0.952    O  475 0.056
   474  C   3.895    O  475 1.857    C  473 0.976    H  591 0.954
   475  O   2.003    C  474 1.857    C  473 0.056
   476  C   3.989    C  473 0.967    H  482 0.961    H  483 0.956    C  477 0.919    O  478 0.050
   477  C   3.933    O  478 1.539    O  479 1.417    C  476 0.919
   478  O   1.869    C  477 1.539    O  479 0.196    C  476 0.050
   479  O   1.883    C  477 1.417    O  478 0.196    H  149 0.071    H  299 0.069
   480  H   0.971    N  472 0.934
   481  H   0.999    C  473 0.952
   482  H   0.997    C  476 0.961
   483  H   0.998    C  476 0.956
   484  N   3.004    C  485 1.023    H  488 0.950    H  592 0.936
   485  C   3.984    N  484 1.023    C  486 0.986    H  489 0.955    C  490 0.928    O  487 0.060
   486  C   3.894    O  487 1.888    C  485 0.986    H  593 0.957
   487  O   2.028    C  486 1.888    C  485 0.060
   488  H   0.973    N  484 0.950
   489  H   0.996    C  485 0.955
   490  C   3.992    C  491 1.014    H  499 0.973    H  498 0.969    C  485 0.928
   491  C   3.988    C  493 1.419    C  492 1.379    C  490 1.014    C  496 0.094
   492  C   3.990    C  494 1.457    C  491 1.379    H  500 0.963    C  495 0.106
   493  C   3.988    C  495 1.445    C  491 1.419    H  501 0.965    C  494 0.102
   494  C   3.988    C  492 1.457    C  496 1.367    H  502 0.961    C  493 0.102
   495  C   3.984    C  493 1.445    C  496 1.373    H  503 0.961    C  492 0.106    O  497 0.058
   496  C   3.926    C  495 1.373    C  494 1.367    O  497 1.055    C  491 0.094
   497  O   2.078    C  496 1.055    H  504 0.865    C  495 0.058
   498  H   0.997    C  490 0.969
   499  H   0.996    C  490 0.973
   500  H   0.997    C  492 0.963
   501  H   0.996    C  493 0.965
   502  H   0.997    C  494 0.961
   503  H   0.996    C  495 0.961
   504  H   0.893    O  497 0.865
   505  N   2.985    C  506 1.004    H  594 0.955    H  509 0.953
   506  C   3.981    N  505 1.004    C  507 0.983    H  510 0.961    C  511 0.960    O  508 0.055
   507  C   3.887    O  508 1.882    C  506 0.983    H  595 0.957
   508  O   2.019    C  507 1.882    C  506 0.055
   509  H   0.971    N  505 0.953
   510  H   0.996    C  506 0.961
   511  C   3.986    C  512 1.003    H  519 0.975    H  518 0.962    C  506 0.960
   512  C   3.991    C  511 1.003    C  513 0.995    H  521 0.972    H  520 0.968
   513  C   3.950    C  512 0.995    N  514 0.987    H  522 0.960    H  523 0.957
   514  N   3.474    C  515 1.316    C  513 0.987    H  524 0.918    N  516 0.106    N  517 0.095
   515  C   3.977    N  516 1.340    N  514 1.316    N  517 1.289
   516  N   3.406    C  515 1.340    H  526 0.919    H  525 0.877    N  514 0.106    N  517 0.099
   517  N   3.365    C  515 1.289    H  527 0.923    H  528 0.919    N  516 0.099    N  514 0.095
   518  H   0.993    C  511 0.962
   519  H   0.997    C  511 0.975
   520  H   0.995    C  512 0.968
   521  H   0.997    C  512 0.972
   522  H   0.991    C  513 0.960
   523  H   0.989    C  513 0.957
   524  H   0.949    N  514 0.918
   525  H   0.937    N  516 0.877
   526  H   0.939    N  516 0.919
   527  H   0.942    N  517 0.923
   528  H   0.938    N  517 0.919
   529  N   2.985    C  530 1.008    H  538 0.955    H  596 0.954
   530  C   3.984    N  529 1.008    C  531 0.982    H  539 0.964    C  533 0.952    O  532 0.056
   531  C   3.890    O  532 1.886    C  530 0.982    H  597 0.953
   532  O   2.026    C  531 1.886    C  530 0.056
   533  C   3.993    C  534 1.014    H  541 0.977    H  540 0.969    C  530 0.952
   534  C   3.988    C  533 1.014    H  542 0.968    H  543 0.964    C  535 0.924    O  536 0.053
   535  C   3.933    O  536 1.547    O  537 1.426    C  534 0.924
   536  O   1.832    C  535 1.547    O  537 0.208    C  534 0.053
   537  O   1.818    C  535 1.426    O  536 0.208    H  313 0.078
   538  H   0.972    N  529 0.955
   539  H   0.998    C  530 0.964
   540  H   0.997    C  533 0.969
   541  H   0.998    C  533 0.977
   542  H   0.999    C  534 0.968
   543  H   0.999    C  534 0.964
   544  N   2.996    C  545 1.009    H  598 0.956    H  548 0.953
   545  C   3.980    N  544 1.009    C  546 0.976    H  549 0.961    C  550 0.957    O  547 0.055
   546  C   3.875    O  547 1.857    C  545 0.976    H  599 0.956
   547  O   2.032    C  546 1.857    C  545 0.055
   548  H   0.969    N  544 0.953
   549  H   0.997    C  545 0.961
   550  C   3.986    C  551 1.004    H  558 0.973    H  557 0.969    C  545 0.957
   551  C   3.990    C  552 1.005    C  550 1.004    H  560 0.972    H  559 0.965
   552  C   3.957    C  551 1.005    N  553 0.975    H  562 0.966    H  561 0.966
   553  N   3.431    C  554 1.323    C  552 0.975    H  563 0.824    N  555 0.104    N  556 0.097
   554  C   3.974    N  555 1.327    N  553 1.323    N  556 1.287
   555  N   3.391    C  554 1.327    H  564 0.914    H  565 0.890    N  553 0.104    N  556 0.095
   556  N   3.371    C  554 1.287    H  566 0.913    H  567 0.906    N  553 0.097    N  555 0.095
   557  H   0.994    C  550 0.969
   558  H   0.994    C  550 0.973
   559  H   0.993    C  551 0.965
   560  H   0.998    C  551 0.972
   561  H   0.997    C  552 0.966
   562  H   0.991    C  552 0.966
   563  H   0.940    N  553 0.824    O  576 0.083
   564  H   0.945    N  555 0.914
   565  H   0.941    N  555 0.890
   566  H   0.951    N  556 0.913
   567  H   0.948    N  556 0.906
   568  N   2.990    C  569 1.023    H  600 0.956    H  577 0.919
   569  C   3.987    N  568 1.023    C  570 0.987    H  578 0.957    C  572 0.939    O  571 0.059
   570  C   3.885    O  571 1.862    C  569 0.987    H  601 0.954
   571  O   2.005    C  570 1.862    C  569 0.059
   572  C   3.990    C  573 1.008    H  580 0.976    H  579 0.975    C  569 0.939
   573  C   3.988    C  572 1.008    H  581 0.969    H  582 0.954    C  574 0.925
   574  C   3.934    O  575 1.488    O  576 1.474    C  573 0.925
   575  O   1.852    C  574 1.488    O  576 0.200
   576  O   1.893    C  574 1.474    O  575 0.200    H  563 0.083
   577  H   0.962    N  568 0.919
   578  H   0.998    C  569 0.957
   579  H   0.997    C  572 0.975
   580  H   0.999    C  572 0.976
   581  H   0.999    C  573 0.969
   582  H   0.996    C  573 0.954
   583  H   0.967    N    1 0.954
   584  H   0.996    C  248 0.957
   585  H   0.993    C  407 0.948
   586  H   0.965    N  424 0.954
   587  H   0.993    C  426 0.956
   588  H   0.969    N  438 0.959
   589  H   0.995    C  459 0.955
   590  H   0.971    N  472 0.958
   591  H   0.995    C  474 0.954
   592  H   0.964    N  484 0.936
   593  H   0.995    C  486 0.957
   594  H   0.965    N  505 0.955
   595  H   0.996    C  507 0.957
   596  H   0.963    N  529 0.954
   597  H   0.993    C  531 0.953
   598  H   0.965    N  544 0.956
   599  H   0.994    C  546 0.956
   600  H   0.966    N  568 0.956
   601  H   0.995    C  570 0.954
 
molecular dipole:
                 x           y           z       tot (Debye)
 q only:       55.421     -53.104      -0.252
   full:       50.457     -52.986      -1.134     185.997
molecular quadrupole (traceless):
                xx          xy          yy          xz          yz          zz
 q only:     3019.948    3724.530   -4248.284    1818.155     567.327    1228.336
  q+dip:     2887.481    3338.192   -4182.256    1639.787     508.029    1294.774
   full:     2895.140    3341.770   -4185.512    1635.997     503.898    1290.372
speedup  8.98
cpu  time for grad   59.67 s
wall time for grad    6.64 s

SCC energy    :    -964.0395016
rep           :      11.0308542
ES            :       3.9877542
AES           :      -0.3013869
AXC           :       0.2683040
disp          :      -0.7691079
XB            :       0.0000000
fix           :       0.0000000
Gborn         :       0.0000000
Gsasa         :       0.0000000
Ghb           :       0.0000000
Gshift        :       0.0000000
Gsolv         :      -1.0866670     -681.89
Etot ala COSMO:    -964.0395016
grad norm     :       0.7628136
total E       :    -952.9181463
atomizationE  :     163.2988579   102471.58
(atE without considering molecular charge,
 total energy contains solvation terms)
H-L gap (eV)  :          0.9805

------------------------------------------------------------------------
 * finished run on 2019/02/16 at 08:09:41.144     
------------------------------------------------------------------------
 total:
 * wall-time:     0 d,  0 h,  0 min,  7.306 sec
 *  cpu-time:     0 d,  0 h,  1 min,  5.282 sec
 * ratio c/w:     8.935 speedup
 SCF:
 * wall-time:     0 d,  0 h,  0 min,  7.046 sec
 *  cpu-time:     0 d,  0 h,  1 min,  2.645 sec
 * ratio c/w:     8.891 speedup

