      -----------------------------------------------------------      
     |                   =====================                   |     
     |                           x T B                           |     
     |                   =====================                   |     
     |                         S. Grimme                         |     
     |          Mulliken Center for Theoretical Chemistry        |     
     |                    University of Bonn                     |     
     |                 Version 6.0.1 (SAW181210)                 |     
      -----------------------------------------------------------      

   This program is distributed in the hope that it will be useful,
   but WITHOUT ANY WARRANTY; without even the implied warranty of
   MERCHANTABILITY or FITNESS FOR A PARTICULAR PURPOSE.
   
   FOR NON-COMMERCIAL, ACADEMIA USE ONLY.
   
   Cite this work as:
   S. Grimme, C. Bannwarth, P. Shushkov, J. Comput. Theory Chem., 2017,
   13, 1989-2009.
   C. Bannwarth, S. Ehlert and S. Grimme., ChemRxiv, 2018, preprint.
   http://doi.org/10.26434/chemrxiv.7246238.v1
   
   for sTDA-xTB:
   S. Grimme and C. Bannwarth, J. Chem. Phys., 2016, 145, 054103.
   
   in the mass-spec context:
   V. Asgeirsson, C. Bauer and S. Grimme, Chem. Sci., 2017, 8, 4879.
   
   if GBSA is used:
   P. Shushkov, F. März and S. Grimme, unpublished.
   
   for ANC optimizer:
   S. Grimme, unpublished.
   Rational Function algorithm used in ANCopt:
   F. Eckert, P. Pulay, H.-J. Werner, J. Comput. Chem., 1997, 18, 1473.
   
   with help from (in alphabetical order)
   C. Bannwarth, F. Bohle, G. Brandenburg, E. Caldeweyher, M. Checinski,
   S. Dohm, S. Ehlert, S. Ehrlich, F. März, H. Neugebauer, J. Pisarek,
   P. Pracht, P. Shushkov, and S. Spicher.
   
 * started run on 2019/02/16 at 08:09:57.754     
========================================================================
 # omp threads = 12
========================================================================
number of atoms            : 560
number of electrons        : 1486
charge                     : -2
spin                       : .0
first test random number   : .2755

########################################################################
# WARNING! Please study the warnings concerning your input carefully
#  - Process number higher than OMP_NUM_THREADS, I hope you know what you are doing.
########################################################################

           ------------------------------------------------- 
          |                 G F N 2 - x T B                 |
          | Geometry, Frequencies, Noncovalent interactions |
          |            JCTC 2018 parametrisation            |
           ------------------------------------------------- 
 
      method parameters     
 k(s)        :  1.8500
 k(p)        :  2.2300
 k(d)        :  2.2300
 k(f)        :  2.0000
 kEN (H0ij)  : -2.0000
 D4 a1       :  0.5200
 D4 a2       :  5.0000
 D4 s6       :  1.0000
 D4 s8       :  2.7000
 D4 s9       :  5.0000
 alphaj      :  2.0000

 Solvent             : h2o
 Using internal parameter file: .param_gbsa2_h2o
 Gsolv ref. state (COSMO-RS): gsolv [1 M gas/solution]
 temperature (mdtemp)       :    298.150000000000     
 dielectric constant        :    80.2000000000000     
 rho                        :    1.00000000000000     
 mass                       :    18.0000000000000     
 surface tension            :    15.5689454083859     
 probe radius               :   0.975313790000000     
 vdW radii scaling          :    1.00000000000000     
 Gshift (Eh)                :   1.857443126794793E-003
 c1                         :    1.55243817000000     
 soset                      :   0.130326360000000     
 HB correction              :  T

            Z     q(EN)     CN     RAES       Cart. coordinates
     1  N   5.0   -0.19    3.25    1.97    24.34794    51.46106     6.35925
     2  C   4.0    0.03    4.32    4.24    21.92926    51.82772     7.62342
     3  C   4.0    0.07    3.25    3.04    22.60554    53.05125    10.16427
     4  O   6.0   -0.29    1.14    1.80    24.38111    52.16393    11.41142
     5  C   4.0   -0.02    4.31    4.22    20.53336    49.36061     8.03948
     6  C   4.0   -0.05    4.19    3.98    19.63581    48.31593     5.47811
     7  C   4.0   -0.08    4.13    3.85    18.13863    49.80901     9.67321
     8  C   4.0   -0.08    3.99    3.60    19.08404    45.44458     5.47947
     9  H   1.0    0.09    1.02    1.43    25.48587    50.14367     7.18060
    10  H   1.0    0.04    1.05    1.44    20.82625    53.10560     6.42984
    11  H   1.0    0.04    1.05    1.44    21.79699    48.01247     8.95579
    12  H   1.0    0.04    1.03    1.43    17.94997    49.33954     4.88042
    13  H   1.0    0.04    1.03    1.43    21.09493    48.64990     4.05427
    14  H   1.0    0.04    1.00    1.43    16.98960    48.11592     9.72017
    15  H   1.0    0.04    1.00    1.43    18.63233    50.29627    11.60779
    16  H   1.0    0.04    1.00    1.43    17.03114    51.33460     8.86541
    17  H   1.0    0.04    1.00    1.43    18.33822    44.87333     3.65853
    18  H   1.0    0.03    1.00    1.43    20.82358    44.42037     5.84348
    19  H   1.0    0.04    1.00    1.43    17.70789    44.95792     6.92230
    20  N   5.0   -0.21    3.25    1.97    14.15246    47.43322    22.40238
    21  C   4.0    0.03    4.30    4.20    11.57592    46.51015    22.15409
    22  C   4.0    0.14    3.45    3.09    11.08072    46.34724    19.31605
    23  O   6.0   -0.32    1.29    1.80    10.10124    44.49524    18.28096
    24  C   4.0   -0.05    4.23    4.06     9.54037    48.16263    23.34443
    25  C   4.0   -0.03    4.16    3.92     9.76497    48.64897    26.16663
    26  C   4.0    0.25    3.08    3.02     9.72709    46.39680    28.05098
    27  O   6.0   -0.29    1.16    1.80     8.15385    46.56277    29.81955
    28  O   6.0   -0.27    1.16    1.80    11.38376    44.71421    27.82462
    29  H   1.0    0.08    1.02    1.43    14.43478    48.82758    23.71969
    30  H   1.0    0.07    1.05    1.44    11.43808    44.59586    22.94999
    31  H   1.0    0.04    1.03    1.43     9.51926    49.98778    22.38884
    32  H   1.0    0.05    1.03    1.43     7.71856    47.25994    22.96671
    33  H   1.0    0.04    1.03    1.43    11.53807    49.59603    26.58716
    34  H   1.0    0.05    1.03    1.43     8.21686    49.88487    26.73341
    35  N   5.0   -0.15    3.47    2.06    12.00964    48.30930    17.95688
    36  C   4.0    0.03    4.39    4.36    11.53537    48.37945    15.23456
    37  C   4.0    0.15    3.45    3.10    12.91383    46.29151    13.77568
    38  O   6.0   -0.31    1.24    1.80    11.90401    45.08484    12.02166
    39  C   4.0   -0.05    4.24    4.09    12.26251    50.98304    14.16043
    40  C   4.0   -0.05    4.15    3.90    11.43769    51.47674    11.36127
    41  C   4.0   -0.02    4.20    4.00    12.19532    54.20372    10.55483
    42  N   5.0   -0.14    3.44    2.04    10.33896    55.86547    11.88063
    43  C   4.0    0.09    3.34    3.06    10.66440    58.33541    12.05057
    44  N   5.0   -0.18    3.30    1.98    12.87847    59.23687    11.34246
    45  N   5.0   -0.19    3.23    1.96     8.93830    59.78470    13.13096
    46  H   1.0    0.07    1.06    1.44    12.59285    49.91362    18.84234
    47  H   1.0    0.05    1.05    1.44     9.50760    48.04953    14.91179
    48  H   1.0    0.04    1.03    1.43    11.33075    52.40915    15.31883
    49  H   1.0    0.04    1.02    1.43    14.30154    51.22839    14.31317
    50  H   1.0    0.04    1.02    1.43    12.34894    50.09304    10.14601
    51  H   1.0    0.04    1.02    1.43     9.40439    51.23988    11.18418
    52  H   1.0    0.04    1.03    1.43    14.09644    54.58625    11.24131
    53  H   1.0    0.04    1.02    1.43    12.03246    54.46242     8.52532
    54  H   1.0    0.07    1.06    1.44     8.71694    55.07543    12.54160
    55  H   1.0    0.08    1.05    1.44    14.10096    58.20729    10.31602
    56  H   1.0    0.08    1.03    1.43    13.20655    61.13150    11.48378
    57  H   1.0    0.08    1.03    1.43     7.23735    59.07796    13.61946
    58  H   1.0    0.08    1.02    1.43     9.18567    61.67814    13.42764
    59  N   5.0   -0.15    3.48    2.06    15.32144    45.98790    14.48287
    60  C   4.0    0.03    4.41    4.39    16.76298    43.93395    13.45843
    61  C   4.0    0.16    3.49    3.11    15.59107    41.39758    13.87661
    62  O   6.0   -0.31    1.30    1.80    15.24760    39.79014    12.20298
    63  C   4.0   -0.04    4.27    4.14    19.50686    43.90995    14.56151
    64  C   4.0   -0.01    3.51    3.12    20.99704    41.47803    13.95690
    65  C   4.0   -0.04    3.51    3.12    21.96495    40.91892    11.58018
    66  C   4.0   -0.04    3.44    3.09    21.45440    39.71768    15.83483
    67  C   4.0   -0.05    3.34    3.06    23.24060    38.74458    10.87986
    68  C   4.0   -0.04    3.39    3.08    22.69934    37.46466    15.19797
    69  C   4.0   -0.04    3.38    3.07    23.48799    36.94787    12.74539
    70  H   1.0    0.07    1.06    1.44    16.06707    47.02923    15.91828
    71  H   1.0    0.05    1.06    1.44    16.87956    44.14023    11.39205
    72  H   1.0    0.04    1.02    1.43    20.49410    45.55961    13.83590
    73  H   1.0    0.04    1.03    1.43    19.33679    44.06386    16.60773
    74  H   1.0    0.04    1.03    1.43    21.68045    42.34994    10.13204
    75  H   1.0    0.05    1.03    1.43    20.78163    40.00147    17.73719
    76  H   1.0    0.04    1.03    1.43    23.98523    38.50395     9.00688
    77  H   1.0    0.05    1.03    1.43    22.94963    36.04670    16.63950
    78  H   1.0    0.05    1.03    1.43    24.35227    35.15591    12.37136
    79  N   5.0   -0.13    3.43    2.04    14.57373    40.95809    16.21441
    80  C   4.0    0.03    4.36    4.30    13.41511    38.44311    16.69527
    81  C   4.0    0.16    3.39    3.08    10.98252    37.99912    15.04011
    82  O   6.0   -0.30    1.26    1.80    10.55781    35.92201    14.08236
    83  H   1.0    0.08    1.05    1.44    14.81231    42.13174    17.70689
    84  H   1.0    0.06    1.05    1.44    14.75294    36.95513    16.20480
    85  C   4.0   -0.04    4.28    4.16    12.61943    38.23373    19.46819
    86  C   4.0   -0.03    4.15    3.89    14.74801    37.99397    21.36860
    87  C   4.0    0.25    3.08    3.02    13.68588    37.96598    24.15398
    88  O   6.0   -0.27    1.18    1.80    11.45251    38.62890    24.50806
    89  O   6.0   -0.28    1.16    1.80    15.23161    37.30190    25.78866
    90  H   1.0    0.07    1.03    1.43    11.48910    39.89182    19.96190
    91  H   1.0    0.06    1.03    1.43    11.35835    36.60240    19.65424
    92  H   1.0    0.05    1.02    1.43    15.82355    36.25963    21.08266
    93  H   1.0    0.05    1.02    1.43    16.01239    39.61526    21.23389
    94  N   5.0   -0.13    3.47    2.06     9.55538    39.98930    14.60403
    95  C   4.0    0.03    4.43    4.42     7.27057    39.86784    12.95269
    96  C   4.0    0.15    3.51    3.12     8.06928    39.06056    10.32286
    97  O   6.0   -0.33    1.31    1.80     6.99116    37.39087     9.05143
    98  C   4.0   -0.04    4.39    4.36     5.89736    42.36269    13.08243
    99  C   4.0   -0.04    4.13    3.87     3.82980    42.39675    11.14630
   100  S   6.0   -0.04    2.60    3.10     2.60825    45.50043    10.76450
   101  C   4.0   -0.07    3.88    3.43     5.00489    46.97884     8.77059
   102  H   1.0    0.11    1.08    1.44     9.77149    41.58822    15.63928
   103  H   1.0    0.06    1.05    1.44     6.05319    38.35267    13.69478
   104  H   1.0    0.06    1.03    1.43     5.15605    42.62536    14.98714
   105  H   1.0    0.06    1.05    1.44     7.26718    43.86328    12.68942
   106  H   1.0    0.05    1.09    1.44     4.50636    41.75292     9.30527
   107  H   1.0    0.05    1.11    1.44     2.25844    41.18284    11.69572
   108  H   1.0    0.04    1.05    1.44     4.42994    48.93349     8.60954
   109  H   1.0    0.05    1.03    1.43     6.85640    46.82208     9.63967
   110  H   1.0    0.04    1.04    1.43     5.00528    46.06770     6.93271
   111  N   5.0   -0.14    3.51    2.09     9.94744    40.43287     9.28255
   112  C   4.0    0.04    4.47    4.49    10.72294    39.90758     6.79643
   113  C   4.0    0.16    3.47    3.10    11.86036    37.24032     6.53016
   114  O   6.0   -0.32    1.27    1.80    11.61882    35.98009     4.59901
   115  C   4.0   -0.04    4.27    4.15    12.64690    41.83908     5.70920
   116  C   4.0   -0.02    3.50    3.12    11.32175    44.26299     4.85360
   117  C   4.0   -0.04    3.52    3.12     9.25152    44.23117     3.20090
   118  C   4.0   -0.04    3.50    3.12    11.89916    46.60076     5.75340
   119  C   4.0   -0.05    3.41    3.08     7.92410    46.35527     2.56559
   120  C   4.0   -0.05    3.40    3.08    10.71884    48.83302     4.92218
   121  C   4.0   -0.05    3.38    3.07     8.57867    48.66844     3.47303
   122  H   1.0    0.11    1.08    1.44    10.80432    41.82862    10.28825
   123  H   1.0    0.05    1.06    1.44     9.03876    39.87851     5.57594
   124  H   1.0    0.05    1.03    1.43    14.04872    42.24732     7.15692
   125  H   1.0    0.04    1.03    1.43    13.55701    40.96252     4.08467
   126  H   1.0    0.04    1.03    1.43     8.68266    42.43851     2.39219
   127  H   1.0    0.05    1.03    1.43    13.45735    46.79199     7.06288
   128  H   1.0    0.04    1.03    1.43     6.28793    46.15269     1.35715
   129  H   1.0    0.04    1.03    1.43    11.31425    50.60069     5.72506
   130  H   1.0    0.05    1.03    1.43     7.51675    50.32574     2.94549
   131  N   5.0   -0.14    3.47    2.06    13.27482    36.54424     8.45668
   132  C   4.0    0.04    4.35    4.29    14.49205    34.01076     8.40819
   133  C   4.0    0.16    3.45    3.10    12.40793    31.95429     8.34143
   134  O   6.0   -0.31    1.28    1.80    12.59383    30.09712     6.89695
   135  H   1.0    0.12    1.10    1.44    13.56950    37.63423    10.00156
   136  H   1.0    0.05    1.05    1.44    15.55004    33.83457     6.64338
   137  C   4.0   -0.05    4.18    3.97    16.29011    33.40799    10.65043
   138  C   4.0   -0.04    4.14    3.88    17.28561    30.66706    10.81305
   139  C   4.0   -0.01    4.14    3.88    19.21888    29.86138     8.77784
   140  N   5.0   -0.14    3.39    2.02    19.77082    27.13035     8.92905
   141  C   4.0    0.10    3.34    3.06    21.44360    25.80285     7.57387
   142  N   5.0   -0.17    3.26    1.97    23.27307    26.88384     6.23893
   143  N   5.0   -0.18    3.25    1.97    21.54359    23.28542     7.88781
   144  H   1.0    0.05    1.02    1.43    17.87706    34.72045    10.56823
   145  H   1.0    0.06    1.03    1.43    15.23544    33.77825    12.38726
   146  H   1.0    0.05    1.03    1.43    18.15641    30.50230    12.67074
   147  H   1.0    0.06    1.03    1.43    15.68271    29.36702    10.76919
   148  H   1.0    0.06    1.04    1.43    18.45287    30.28470     6.91291
   149  H   1.0    0.04    1.02    1.43    20.98490    30.89585     9.04494
   150  H   1.0    0.12    1.17    1.46    18.36625    26.03535     9.71439
   151  H   1.0    0.10    1.04    1.43    22.98042    28.61069     5.47572
   152  H   1.0    0.11    1.05    1.44    24.47428    25.74842     5.24384
   153  H   1.0    0.11    1.04    1.44    20.02784    22.45041     8.69953
   154  H   1.0    0.11    1.05    1.44    22.70419    22.21430     6.80608
   155  N   5.0   -0.13    3.44    2.04    10.33331    32.35433     9.71054
   156  C   4.0    0.04    4.39    4.36     8.30012    30.42585     9.76601
   157  C   4.0    0.16    3.48    3.11     6.95905    30.31244     7.18613
   158  O   6.0   -0.31    1.27    1.80     6.37320    28.25622     6.25650
   159  C   4.0   -0.03    4.24    4.07     6.25715    31.18437    11.75616
   160  C   4.0   -0.03    4.19    3.99     4.58062    28.91226    12.26478
   161  C   4.0    0.25    3.08    3.02     2.36604    29.15475    14.16637
   162  O   6.0   -0.29    1.17    1.80     2.17158    31.13793    15.38418
   163  O   6.0   -0.28    1.16    1.80     0.90907    27.26850    14.31742
   164  H   1.0    0.11    1.09    1.44    10.31962    33.72407    11.05083
   165  H   1.0    0.06    1.05    1.44     9.10131    28.57288    10.18982
   166  H   1.0    0.07    1.02    1.43     7.18119    31.79546    13.49311
   167  H   1.0    0.06    1.04    1.43     5.14346    32.72481    10.99711
   168  H   1.0    0.06    1.03    1.43     3.73374    28.24671    10.49888
   169  H   1.0    0.06    1.03    1.43     5.73248    27.34925    12.98410
   170  N   5.0   -0.14    3.52    2.10     6.42453    32.52178     6.10435
   171  C   4.0    0.04    4.44    4.45     5.27002    32.59561     3.68957
   172  C   4.0    0.16    3.48    3.11     6.95975    31.28407     1.73581
   173  O   6.0   -0.32    1.26    1.80     6.06152    29.87039     0.11482
   174  C   4.0   -0.05    4.35    4.30     4.86021    35.37007     2.85807
   175  C   4.0   -0.02    4.20    4.00     2.72108    36.63658     4.38049
   176  C   4.0   -0.08    4.18    3.96     2.56288    39.35721     3.58762
   177  C   4.0   -0.08    4.15    3.91     0.11585    35.60461     3.80455
   178  H   1.0    0.11    1.09    1.44     6.82542    34.15568     7.01845
   179  H   1.0    0.05    1.05    1.44     3.47897    31.55286     3.71230
   180  H   1.0    0.05    1.03    1.43     6.63021    36.38082     3.14345
   181  H   1.0    0.04    1.03    1.43     4.37585    35.37549     0.85554
   182  H   1.0    0.06    1.06    1.44     3.09418    36.46927     6.39266
   183  H   1.0    0.04    1.00    1.43     1.11346    40.34007     4.66551
   184  H   1.0    0.04    1.00    1.43     4.34249    40.34597     3.91537
   185  H   1.0    0.03    1.00    1.43     2.10820    39.50808     1.58875
   186  H   1.0    0.04    1.01    1.43    -1.26720    36.62870     4.92743
   187  H   1.0    0.03    1.00    1.43    -0.35588    35.82779     1.82057
   188  H   1.0    0.04    1.00    1.43    -0.08076    33.61113     4.28097
   189  N   5.0   -0.14    3.50    2.08     9.40011    31.84216     1.78350
   190  C   4.0    0.03    4.44    4.45    11.10708    30.75534    -0.11416
   191  C   4.0    0.16    3.49    3.11    11.30735    27.93082     0.18699
   192  O   6.0   -0.28    1.24    1.80    11.24680    26.35054    -1.59760
   193  C   4.0   -0.03    4.39    4.37    13.72494    31.85766     0.15139
   194  C   4.0    0.16    3.25    3.04    15.60892    31.10892    -1.84831
   195  O   6.0   -0.30    1.28    1.80    17.61420    30.06141    -1.29887
   196  N   5.0   -0.18    3.25    1.97    14.83772    31.57269    -4.09288
   197  H   1.0    0.11    1.09    1.44    10.11366    33.08325     3.06118
   198  H   1.0    0.05    1.06    1.44    10.26695    31.10058    -1.97983
   199  H   1.0    0.05    1.03    1.43    13.54953    33.92176     0.14511
   200  H   1.0    0.06    1.03    1.43    14.48129    31.32009     1.99872
   201  H   1.0    0.09    1.03    1.43    15.72888    30.84485    -5.63871
   202  H   1.0    0.07    1.05    1.44    13.18127    32.48083    -4.34734
   203  N   5.0   -0.13    3.47    2.06    11.40474    27.05645     2.56604
   204  C   4.0    0.04    4.41    4.40    11.48052    24.32917     2.98739
   205  C   4.0    0.16    3.47    3.10     9.09641    22.99005     2.10260
   206  O   6.0   -0.27    1.23    1.80     9.09548    20.85062     1.20061
   207  C   4.0   -0.03    4.28    4.16    11.75557    23.43208     5.76358
   208  C   4.0   -0.02    4.17    3.93    14.30572    24.06924     6.91371
   209  C   4.0    0.25    3.10    3.02    14.46850    23.44579     9.78470
   210  O   6.0   -0.30    1.20    1.80    12.46917    22.77517    10.89169
   211  O   6.0   -0.32    1.31    1.80    16.61443    23.71195    10.72771
   212  H   1.0    0.11    1.09    1.44    11.60053    28.19905     4.10099
   213  H   1.0    0.07    1.05    1.44    13.04028    23.53788     1.86403
   214  H   1.0    0.07    1.03    1.43    10.26128    24.31554     6.88161
   215  H   1.0    0.06    1.04    1.43    11.49741    21.38837     5.74943
   216  H   1.0    0.05    1.02    1.43    15.81362    23.05546     5.94059
   217  H   1.0    0.06    1.03    1.43    14.68014    26.09179     6.73295
   218  N   5.0   -0.13    3.50    2.08     6.90717    24.20814     2.52274
   219  C   4.0    0.04    4.29    4.18     4.45489    23.19411     1.76678
   220  C   4.0    0.16    3.38    3.07     4.37174    22.89405    -1.14120
   221  O   6.0   -0.28    1.21    1.80     3.49901    20.95859    -2.10492
   222  C   4.0   -0.07    4.07    3.75     2.37794    24.82757     2.95915
   223  H   1.0    0.11    1.09    1.44     6.88042    25.87737     3.47082
   224  H   1.0    0.07    1.05    1.44     4.31757    21.24471     2.46943
   225  H   1.0    0.04    1.00    1.43     0.56752    23.88542     2.76172
   226  H   1.0    0.06    1.00    1.43     2.82122    25.08559     4.94499
   227  H   1.0    0.05    1.00    1.43     2.32790    26.66594     2.04753
   228  N   5.0   -0.13    3.45    2.05     5.34865    24.84549    -2.55174
   229  C   4.0    0.04    4.36    4.31     5.43081    24.72571    -5.26928
   230  C   4.0    0.10    3.27    3.05     7.02728    22.63548    -6.21061
   231  O   6.0   -0.28    1.12    1.80     6.39774    21.28022    -7.99290
   232  C   4.0   -0.04    4.43    4.43     6.10903    27.20988    -6.39936
   233  C   4.0   -0.02    4.18    3.95     4.13299    29.33603    -5.88205
   234  C   4.0   -0.08    4.15    3.91     5.53569    31.66303    -6.74285
   235  C   4.0   -0.08    4.09    3.78     1.73611    28.84903    -7.44557
   236  H   1.0    0.11    1.08    1.44     5.97914    26.40334    -1.63509
   237  H   1.0    0.06    1.07    1.44     3.52252    24.20650    -5.93894
   238  H   1.0    0.05    1.03    1.43     7.95128    27.76496    -5.64792
   239  H   1.0    0.04    1.04    1.43     6.27407    26.94493    -8.43589
   240  H   1.0    0.05    1.05    1.44     3.69121    29.42497    -3.87491
   241  H   1.0    0.03    1.00    1.43     4.37786    33.35132    -6.55070
   242  H   1.0    0.04    1.00    1.43     7.24236    31.91757    -5.63577
   243  H   1.0    0.03    1.01    1.43     6.04882    31.46784    -8.72276
   244  H   1.0    0.03    1.00    1.43     0.47377    30.46857    -7.37142
   245  H   1.0    0.04    1.00    1.43     2.22062    28.51764    -9.41599
   246  H   1.0    0.04    1.00    1.43     0.72370    27.19908    -6.77169
   247  O   6.0   -0.29    1.93    1.82    24.89827    29.36648     1.46451
   248  H   1.0    0.15    1.00    1.43    26.10690    30.32862     2.43998
   249  H   1.0    0.13    0.97    1.43    24.29852    30.46928     0.14075
   250  O   6.0   -0.31    1.99    1.83    19.23461    28.79774     3.37095
   251  H   1.0    0.16    1.03    1.43    18.86932    29.36796     1.66175
   252  H   1.0    0.14    0.98    1.43    19.40137    27.00371     3.20216
   253  O   6.0   -0.30    1.92    1.82     5.96757    41.62099    20.01168
   254  H   1.0    0.15    1.01    1.43     7.51014    42.48069    19.53495
   255  H   1.0    0.14    0.97    1.43     6.08280    41.32097    21.79421
   256  O   6.0   -0.29    1.92    1.82    11.71838    27.05598    14.46334
   257  H   1.0    0.13    0.97    1.43    11.01352    26.12082    15.85361
   258  H   1.0    0.15    1.00    1.43    12.06671    25.78381    13.19647
   259  O   6.0   -0.32    1.93    1.82    -2.16832    50.18832    10.55336
   260  H   1.0    0.12    0.97    1.43    -2.02413    51.18315    12.06706
   261  H   1.0    0.15    1.01    1.43    -3.91252    49.64458    10.38085
   262  O   6.0   -0.29    1.96    1.82    26.91338    23.24165     3.81844
   263  H   1.0    0.15    0.97    1.43    27.23102    23.24270     2.03765
   264  H   1.0    0.17    1.04    1.43    26.09595    21.63367     4.20934
   265  O   6.0   -0.29    1.91    1.82    18.68580    17.86487     9.94348
   266  H   1.0    0.13    0.97    1.43    19.64308    18.25584     8.45425
   267  H   1.0    0.12    0.96    1.43    19.61376    16.51650    10.80389
   268  O   6.0   -0.31    1.94    1.82     2.16832    35.79421    10.55336
   269  H   1.0    0.14    0.97    1.43     2.02413    34.79938    12.06706
   270  H   1.0    0.15    1.01    1.43     3.91252    36.33795    10.38085
   271  N   5.0   -0.20    3.21    1.96    35.84992    26.77711     0.37903
   272  C   4.0    0.03    4.26    4.13    34.79518    27.32027     2.86750
   273  C   4.0    0.08    3.20    3.04    33.76719    24.84794     4.03810
   274  O   6.0   -0.28    1.14    1.80    32.22020    23.62879     2.83565
   275  C   4.0   -0.04    4.31    4.21    32.81117    29.37148     2.64255
   276  C   4.0   -0.04    4.28    4.16    32.08471    30.12649     5.28115
   277  C   4.0    0.15    3.24    3.04    30.41934    32.49328     5.14356
   278  O   6.0   -0.32    1.27    1.80    28.44145    32.48441     4.02600
   279  N   5.0   -0.19    3.20    1.96    31.22832    34.47951     6.37107
   280  H   1.0    0.09    1.03    1.43    34.58066    26.88115    -1.05914
   281  H   1.0    0.03    1.05    1.44    36.37007    27.98562     4.04166
   282  H   1.0    0.04    1.03    1.43    33.61249    30.96060     1.60355
   283  H   1.0    0.06    1.03    1.43    31.16529    28.66171     1.62356
   284  H   1.0    0.05    1.03    1.43    30.96342    28.63346     6.15464
   285  H   1.0    0.03    1.03    1.43    33.74195    30.49634     6.44463
   286  H   1.0    0.07    1.03    1.43    32.77716    34.43616     7.49902
   287  H   1.0    0.09    1.03    1.43    30.12969    36.05136     6.49528
   288  N   5.0   -0.20    3.22    1.96    30.97847    21.22336    10.90868
   289  C   4.0    0.03    4.23    4.05    29.75327    21.59071    13.34579
   290  C   4.0    0.07    3.21    3.04    30.71838    19.71486    15.28059
   291  O   6.0   -0.29    1.14    1.80    30.56766    17.46029    14.83917
   292  C   4.0   -0.04    4.26    4.12    26.89644    21.14732    12.91131
   293  C   4.0   -0.05    4.15    3.91    25.30054    22.61761    14.85910
   294  C   4.0   -0.01    4.17    3.95    22.40313    22.17915    14.53835
   295  N   5.0   -0.14    3.40    2.02    21.07951    23.52397    16.55085
   296  C   4.0    0.10    3.34    3.06    18.62569    23.26151    17.09031
   297  N   5.0   -0.17    3.24    1.97    17.27426    21.48591    15.89883
   298  N   5.0   -0.18    3.23    1.96    17.70104    24.56588    19.04365
   299  H   1.0    0.10    1.03    1.43    30.35684    19.70520     9.93155
   300  H   1.0    0.03    1.05    1.44    30.11966    23.53812    13.92906
   301  H   1.0    0.05    1.03    1.43    26.38825    21.77154    11.01559
   302  H   1.0    0.06    1.03    1.43    26.51558    19.12694    13.03600
   303  H   1.0    0.04    1.03    1.43    25.82917    21.97898    16.74504
   304  H   1.0    0.04    1.04    1.43    25.70772    24.62176    14.65220
   305  H   1.0    0.05    1.02    1.43    21.78921    22.83531    12.67655
   306  H   1.0    0.05    1.02    1.43    21.99144    20.16525    14.67786
   307  H   1.0    0.08    1.07    1.44    22.05179    24.94548    17.37788
   308  H   1.0    0.11    1.04    1.43    17.76344    20.99024    14.12050
   309  H   1.0    0.10    1.03    1.43    15.38914    21.37750    16.24208
   310  H   1.0    0.09    1.03    1.43    18.76908    25.83211    19.97808
   311  H   1.0    0.09    1.03    1.43    15.85757    24.39877    19.48151
   312  N   5.0   -0.20    3.20    1.96    26.87106    41.18446     3.59523
   313  C   4.0    0.03    4.26    4.12    25.44699    38.95135     2.79129
   314  C   4.0    0.08    3.27    3.05    25.99985    38.21770     0.14642
   315  O   6.0   -0.29    1.15    1.80    25.87528    39.71921    -1.56432
   316  C   4.0   -0.05    4.41    4.39    22.58313    39.52081     2.94021
   317  C   4.0   -0.02    4.20    4.01    20.95843    37.24086     2.46642
   318  C   4.0   -0.07    4.17    3.93    21.49530    35.25235     4.43398
   319  C   4.0   -0.07    4.11    3.83    18.13410    37.98242     2.79307
   320  H   1.0    0.09    1.02    1.43    26.61793    42.78063     2.56852
   321  H   1.0    0.04    1.06    1.44    25.95978    37.45044     4.11160
   322  H   1.0    0.03    1.03    1.43    22.18174    40.27552     4.81692
   323  H   1.0    0.05    1.03    1.43    22.18174    41.00386     1.55777
   324  H   1.0    0.05    1.05    1.44    21.25846    36.49346     0.56485
   325  H   1.0    0.05    1.00    1.43    20.23183    33.64864     4.17517
   326  H   1.0    0.05    1.00    1.43    23.40493    34.50721     4.31589
   327  H   1.0    0.04    1.00    1.43    21.18962    36.02405     6.31334
   328  H   1.0    0.05    1.00    1.43    16.92400    36.35291     2.51006
   329  H   1.0    0.04    1.00    1.43    17.84179    38.71448     4.68797
   330  H   1.0    0.04    1.00    1.43    17.60525    39.43465     1.43683
   331  N   5.0   -0.22    3.20    1.96     9.94744    45.54966    -9.28255
   332  C   4.0    0.03    4.23    4.05    10.72294    46.07495    -6.79643
   333  C   4.0    0.07    3.20    3.04    11.86036    48.74221    -6.53016
   334  O   6.0   -0.32    1.15    1.80    11.61882    50.00244    -4.59901
   335  C   4.0   -0.04    4.27    4.14    12.64690    44.14345    -5.70920
   336  C   4.0   -0.02    3.50    3.11    11.32175    41.71954    -4.85360
   337  C   4.0   -0.04    3.52    3.12     9.25152    41.75136    -3.20090
   338  C   4.0   -0.04    3.50    3.12    11.89916    39.38177    -5.75340
   339  C   4.0   -0.05    3.41    3.08     7.92410    39.62726    -2.56559
   340  C   4.0   -0.05    3.40    3.08    10.71884    37.14951    -4.92218
   341  C   4.0   -0.05    3.38    3.07     8.57867    37.31409    -3.47303
   342  H   1.0    0.08    1.02    1.43    10.80432    44.15391   -10.28825
   343  H   1.0    0.04    1.06    1.44     9.03876    46.10402    -5.57594
   344  H   1.0    0.04    1.03    1.43    14.04872    43.73521    -7.15692
   345  H   1.0    0.05    1.03    1.43    13.55701    45.02002    -4.08467
   346  H   1.0    0.04    1.03    1.43     8.68266    43.54402    -2.39219
   347  H   1.0    0.04    1.03    1.43    13.45735    39.19054    -7.06288
   348  H   1.0    0.04    1.03    1.43     6.28793    39.82984    -1.35715
   349  H   1.0    0.04    1.03    1.43    11.31425    35.38184    -5.72506
   350  H   1.0    0.05    1.03    1.43     7.51675    35.65679    -2.94549
   351  N   5.0   -0.21    3.26    1.97     6.42453    53.46075    -6.10435
   352  C   4.0    0.03    4.32    4.23     5.27002    53.38692    -3.68957
   353  C   4.0    0.15    3.43    3.09     6.95975    54.69846    -1.73581
   354  O   6.0   -0.32    1.26    1.80     6.06152    56.11214    -0.11482
   355  C   4.0   -0.05    4.35    4.30     4.86021    50.61246    -2.85807
   356  C   4.0   -0.03    4.20    4.00     2.72108    49.34595    -4.38049
   357  C   4.0   -0.08    4.18    3.96     2.56288    46.62532    -3.58762
   358  C   4.0   -0.08    4.15    3.91     0.11585    50.37792    -3.80455
   359  H   1.0    0.08    1.03    1.43     6.82542    51.82685    -7.01845
   360  H   1.0    0.04    1.05    1.44     3.47897    54.42967    -3.71230
   361  H   1.0    0.05    1.03    1.43     6.63021    49.60171    -3.14345
   362  H   1.0    0.04    1.03    1.43     4.37585    50.60704    -0.85554
   363  H   1.0    0.03    1.06    1.44     3.09418    49.51326    -6.39266
   364  H   1.0    0.03    1.00    1.43     1.11346    45.64246    -4.66551
   365  H   1.0    0.03    1.00    1.43     4.34249    45.63656    -3.91537
   366  H   1.0    0.03    1.00    1.43     2.10820    46.47445    -1.58875
   367  H   1.0    0.03    1.01    1.43    -1.26720    49.35383    -4.92743
   368  H   1.0    0.04    1.00    1.43    -0.35588    50.15474    -1.82057
   369  H   1.0    0.04    1.00    1.43    -0.08076    52.37140    -4.28097
   370  N   5.0   -0.15    3.47    2.06     9.40011    54.14037    -1.78350
   371  C   4.0    0.03    4.35    4.29    11.10708    55.22720     0.11416
   372  C   4.0    0.09    3.28    3.05    11.30735    58.05171    -0.18699
   373  O   6.0   -0.28    1.10    1.80    11.24680    59.63200     1.59760
   374  C   4.0   -0.03    4.38    4.35    13.72494    54.12487    -0.15139
   375  C   4.0    0.16    3.25    3.04    15.60892    54.87361     1.84831
   376  O   6.0   -0.29    1.20    1.80    17.61420    55.92112     1.29887
   377  N   5.0   -0.19    3.25    1.97    14.83772    54.40984     4.09288
   378  H   1.0    0.11    1.09    1.44    10.11366    52.89928    -3.06118
   379  H   1.0    0.05    1.05    1.44    10.26695    54.88195     1.97983
   380  H   1.0    0.05    1.03    1.43    13.54953    52.06077    -0.14511
   381  H   1.0    0.06    1.03    1.43    14.48129    54.66244    -1.99872
   382  H   1.0    0.09    1.03    1.43    15.72888    55.13768     5.63871
   383  H   1.0    0.07    1.05    1.44    13.18127    53.50170     4.34734
   384  N   5.0   -0.20    3.23    1.96     5.34865    61.13704     2.55174
   385  C   4.0    0.04    4.27    4.14     5.43081    61.25682     5.26928
   386  C   4.0    0.08    3.25    3.04     7.02728    63.34705     6.21061
   387  O   6.0   -0.30    1.12    1.80     6.39774    64.70231     7.99290
   388  C   4.0   -0.04    4.43    4.43     6.10903    58.77265     6.39936
   389  C   4.0   -0.02    4.18    3.95     4.13299    56.64650     5.88205
   390  C   4.0   -0.08    4.15    3.91     5.53569    54.31950     6.74285
   391  C   4.0   -0.08    4.09    3.78     1.73611    57.13350     7.44557
   392  H   1.0    0.12    1.04    1.43     5.97914    59.57919     1.63509
   393  H   1.0    0.05    1.07    1.44     3.52252    61.77603     5.93894
   394  H   1.0    0.05    1.03    1.43     7.95128    58.21757     5.64792
   395  H   1.0    0.05    1.04    1.43     6.27407    59.03760     8.43589
   396  H   1.0    0.05    1.05    1.44     3.69121    56.55756     3.87491
   397  H   1.0    0.04    1.00    1.43     4.37786    52.63121     6.55070
   398  H   1.0    0.04    1.00    1.43     7.24236    54.06497     5.63577
   399  H   1.0    0.04    1.01    1.43     6.04882    54.51469     8.72276
   400  H   1.0    0.04    1.00    1.43     0.47377    55.51396     7.37142
   401  H   1.0    0.04    1.00    1.43     2.22062    57.46489     9.41599
   402  H   1.0    0.04    1.00    1.43     0.72370    58.78345     6.77169
   403  N   5.0   -0.20    3.36    2.00    32.02813    30.06210    17.35437
   404  C   4.0    0.03    4.26    4.11    32.73959    29.62042    14.75987
   405  C   4.0    0.07    3.18    3.03    35.56771    30.20239    14.48529
   406  O   6.0   -0.29    1.12    1.80    36.63705    31.90105    15.67344
   407  H   1.0    0.09    1.03    1.43    32.09052    31.89874    17.90301
   408  H   1.0    0.03    1.05    1.44    32.44746    27.61876    14.34509
   409  C   4.0   -0.04    4.32    4.23    30.95942    31.18974    13.07509
   410  C   4.0   -0.02    3.65    3.20    28.33101    30.75315    14.02018
   411  C   4.0   -0.05    3.57    3.15    27.43629    31.96771    16.18374
   412  C   4.0   -0.05    3.48    3.11    26.72208    29.14249    12.75262
   413  C   4.0   -0.04    3.44    3.09    25.06042    31.47254    17.12357
   414  C   4.0   -0.05    3.45    3.10    24.28264    28.74867    13.58331
   415  C   4.0    0.06    3.46    3.10    23.46885    29.85566    15.82229
   416  O   6.0   -0.25    2.11    1.84    21.13226    29.35396    16.81112
   417  H   1.0    0.05    1.03    1.43    31.46408    33.17885    13.25126
   418  H   1.0    0.04    1.03    1.43    31.18701    30.60961    11.11627
   419  H   1.0    0.05    1.04    1.43    28.55930    33.39460    17.08495
   420  H   1.0    0.05    1.03    1.43    27.36754    28.22524    11.04813
   421  H   1.0    0.05    1.03    1.43    24.39479    32.34833    18.83274
   422  H   1.0    0.06    1.03    1.43    23.01899    27.57029    12.50256
   423  H   1.0    0.12    1.04    1.43    20.07079    28.59452    15.53112
   424  N   5.0   -0.22    3.17    1.95    22.29554     9.30789     5.03579
   425  C   4.0    0.03    4.21    4.03    20.19202    11.04353     5.68766
   426  C   4.0    0.08    3.19    3.03    17.61625     9.93186     5.12945
   427  O   6.0   -0.28    1.12    1.80    15.92746    10.16360     6.73696
   428  C   4.0   -0.04    4.28    4.16    20.56255    13.66753     4.53071
   429  C   4.0   -0.03    4.20    4.01    22.91875    14.96354     5.55301
   430  C   4.0    0.24    3.14    3.03    23.14591    17.62721     4.55966
   431  O   6.0   -0.29    1.20    1.80    21.82332    18.24736     2.70381
   432  O   6.0   -0.32    1.28    1.80    24.74628    19.08726     5.57967
   433  H   1.0    0.08    1.02    1.43    23.39477     9.80489     3.55431
   434  H   1.0    0.05    1.06    1.44    20.23638    11.24488     7.75942
   435  H   1.0    0.05    1.03    1.43    20.70804    13.49827     2.47715
   436  H   1.0    0.06    1.03    1.43    18.89035    14.80808     4.91924
   437  H   1.0    0.04    1.02    1.43    22.90759    14.97114     7.61794
   438  H   1.0    0.05    1.03    1.43    24.59329    13.93991     4.90585
   439  N   5.0   -0.22    3.21    1.96    -9.55538    45.99323    14.60403
   440  C   4.0    0.02    4.33    4.25    -7.27057    46.11469    12.95269
   441  C   4.0    0.14    3.48    3.10    -8.06928    46.92197    10.32286
   442  O   6.0   -0.33    1.31    1.80    -6.99116    48.59166     9.05143
   443  C   4.0   -0.05    4.39    4.36    -5.89736    43.61984    13.08243
   444  C   4.0   -0.04    4.13    3.87    -3.82980    43.58578    11.14630
   445  S   6.0   -0.04    2.60    3.10    -2.60825    40.48210    10.76450
   446  C   4.0   -0.07    3.88    3.43    -5.00489    39.00369     8.77059
   447  H   1.0    0.07    1.02    1.43    -9.77149    44.39431    15.63928
   448  H   1.0    0.04    1.05    1.44    -6.05319    47.62986    13.69478
   449  H   1.0    0.04    1.03    1.43    -5.15605    43.35717    14.98714
   450  H   1.0    0.04    1.05    1.44    -7.26718    42.11925    12.68942
   451  H   1.0    0.05    1.09    1.44    -4.50636    44.22961     9.30527
   452  H   1.0    0.05    1.11    1.44    -2.25844    44.79969    11.69572
   453  H   1.0    0.04    1.05    1.44    -4.42994    37.04904     8.60954
   454  H   1.0    0.04    1.03    1.43    -6.85640    39.16045     9.63967
   455  H   1.0    0.04    1.04    1.43    -5.00528    39.91483     6.93271
   456  N   5.0   -0.15    3.46    2.06    -9.94744    45.54966     9.28255
   457  C   4.0    0.04    4.36    4.31   -10.72294    46.07495     6.79643
   458  C   4.0    0.08    3.24    3.04   -11.86036    48.74221     6.53016
   459  O   6.0   -0.30    1.11    1.80   -11.61882    50.00244     4.59901
   460  C   4.0   -0.04    4.27    4.14   -12.64690    44.14345     5.70920
   461  C   4.0   -0.02    3.50    3.11   -11.32175    41.71954     4.85360
   462  C   4.0   -0.05    3.52    3.12    -9.25152    41.75136     3.20090
   463  C   4.0   -0.05    3.50    3.12   -11.89916    39.38177     5.75340
   464  C   4.0   -0.05    3.41    3.08    -7.92410    39.62726     2.56559
   465  C   4.0   -0.05    3.40    3.08   -10.71884    37.14951     4.92218
   466  C   4.0   -0.05    3.38    3.07    -8.57867    37.31409     3.47303
   467  H   1.0    0.07    1.06    1.44   -10.80432    44.15391    10.28825
   468  H   1.0    0.05    1.06    1.44    -9.03876    46.10402     5.57594
   469  H   1.0    0.04    1.03    1.43   -14.04872    43.73521     7.15692
   470  H   1.0    0.04    1.03    1.43   -13.55701    45.02002     4.08467
   471  H   1.0    0.04    1.03    1.43    -8.68266    43.54402     2.39219
   472  H   1.0    0.04    1.03    1.43   -13.45735    39.19054     7.06288
   473  H   1.0    0.04    1.03    1.43    -6.28793    39.82984     1.35715
   474  H   1.0    0.04    1.03    1.43   -11.31425    35.38184     5.72506
   475  H   1.0    0.04    1.03    1.43    -7.51675    35.65679     2.94549
   476  N   5.0   -0.20    3.24    1.96    -6.42453    53.46075     6.10435
   477  C   4.0    0.04    4.23    4.05    -5.27002    53.38692     3.68957
   478  C   4.0    0.08    3.21    3.04    -6.95975    54.69846     1.73581
   479  O   6.0   -0.30    1.11    1.80    -6.06152    56.11214     0.11482
   480  C   4.0   -0.04    4.35    4.28    -4.86021    50.61246     2.85807
   481  C   4.0   -0.02    4.20    4.00    -2.72108    49.34595     4.38049
   482  C   4.0   -0.08    4.18    3.96    -2.56288    46.62532     3.58762
   483  C   4.0   -0.08    4.15    3.91    -0.11585    50.37792     3.80455
   484  H   1.0    0.11    1.05    1.44    -6.82542    51.82685     7.01845
   485  H   1.0    0.04    1.05    1.44    -3.47897    54.42967     3.71230
   486  H   1.0    0.05    1.03    1.43    -6.63021    49.60171     3.14345
   487  H   1.0    0.04    1.03    1.43    -4.37585    50.60704     0.85554
   488  H   1.0    0.06    1.06    1.44    -3.09418    49.51326     6.39266
   489  H   1.0    0.04    1.00    1.43    -1.11346    45.64246     4.66551
   490  H   1.0    0.04    1.00    1.43    -4.34249    45.63656     3.91537
   491  H   1.0    0.03    1.00    1.43    -2.10820    46.47445     1.58875
   492  H   1.0    0.04    1.01    1.43     1.26720    49.35383     4.92743
   493  H   1.0    0.03    1.00    1.43     0.35588    50.15474     1.82057
   494  H   1.0    0.04    1.00    1.43     0.08076    52.37140     4.28097
   495  N   5.0   -0.22    3.23    1.96    -6.42453    32.52178    -6.10435
   496  C   4.0    0.03    4.23    4.05    -5.27002    32.59561    -3.68957
   497  C   4.0    0.07    3.21    3.04    -6.95975    31.28407    -1.73581
   498  O   6.0   -0.32    1.14    1.80    -6.06152    29.87039    -0.11482
   499  C   4.0   -0.05    4.35    4.28    -4.86021    35.37007    -2.85807
   500  C   4.0   -0.03    4.20    4.00    -2.72108    36.63658    -4.38049
   501  C   4.0   -0.08    4.18    3.96    -2.56288    39.35721    -3.58762
   502  C   4.0   -0.08    4.15    3.91    -0.11585    35.60461    -3.80455
   503  H   1.0    0.07    1.03    1.43    -6.82542    34.15568    -7.01845
   504  H   1.0    0.04    1.05    1.44    -3.47897    31.55286    -3.71230
   505  H   1.0    0.04    1.03    1.43    -6.63021    36.38082    -3.14345
   506  H   1.0    0.04    1.03    1.43    -4.37585    35.37549    -0.85554
   507  H   1.0    0.03    1.06    1.44    -3.09418    36.46927    -6.39266
   508  H   1.0    0.03    1.00    1.43    -1.11346    40.34007    -4.66551
   509  H   1.0    0.03    1.00    1.43    -4.34249    40.34597    -3.91537
   510  H   1.0    0.03    1.00    1.43    -2.10820    39.50808    -1.58875
   511  H   1.0    0.03    1.01    1.43     1.26720    36.62870    -4.92743
   512  H   1.0    0.03    1.00    1.43     0.35588    35.82779    -1.82057
   513  H   1.0    0.04    1.00    1.43     0.08076    33.61113    -4.28097
   514  N   5.0   -0.21    3.23    1.96    -5.34865    24.84549     2.55174
   515  C   4.0    0.03    4.27    4.14    -5.43081    24.72571     5.26928
   516  C   4.0    0.07    3.25    3.04    -7.02728    22.63548     6.21061
   517  O   6.0   -0.29    1.12    1.80    -6.39774    21.28022     7.99290
   518  C   4.0   -0.04    4.43    4.43    -6.10903    27.20988     6.39936
   519  C   4.0   -0.02    4.18    3.95    -4.13299    29.33603     5.88205
   520  C   4.0   -0.08    4.15    3.91    -5.53569    31.66303     6.74285
   521  C   4.0   -0.07    4.09    3.78    -1.73611    28.84903     7.44557
   522  H   1.0    0.11    1.04    1.43    -5.97914    26.40334     1.63509
   523  H   1.0    0.05    1.07    1.44    -3.52252    24.20650     5.93894
   524  H   1.0    0.04    1.03    1.43    -7.95128    27.76496     5.64792
   525  H   1.0    0.05    1.04    1.43    -6.27407    26.94493     8.43589
   526  H   1.0    0.05    1.05    1.44    -3.69121    29.42497     3.87491
   527  H   1.0    0.04    1.00    1.43    -4.37786    33.35132     6.55070
   528  H   1.0    0.04    1.00    1.43    -7.24236    31.91757     5.63577
   529  H   1.0    0.04    1.01    1.43    -6.04882    31.46784     8.72276
   530  H   1.0    0.05    1.00    1.43    -0.47377    30.46857     7.37142
   531  H   1.0    0.05    1.00    1.43    -2.22062    28.51764     9.41599
   532  H   1.0    0.04    1.00    1.43    -0.72370    27.19908     6.77169
   533  H   1.0    0.09    1.07    1.44    24.08051    50.95382     4.75808
   534  H   1.0    0.05    1.04    1.43    21.62073    54.53827    10.78876
   535  H   1.0    0.10    1.07    1.44    15.17478    46.14962    22.84937
   536  H   1.0    0.07    1.05    1.44     8.69267    22.27643    -5.39290
   537  H   1.0    0.08    1.07    1.44    37.08661    27.89158     0.03100
   538  H   1.0    0.05    1.04    1.43    34.37084    24.28503     5.73804
   539  H   1.0    0.09    1.07    1.44    30.71059    22.58640     9.92739
   540  H   1.0    0.05    1.04    1.44    31.47007    20.33123    16.90112
   541  H   1.0    0.08    1.07    1.44    26.44050    41.58851     5.19020
   542  H   1.0    0.06    1.05    1.44    26.49114    36.43822    -0.25751
   543  H   1.0    0.09    1.08    1.44     8.30637    45.10307    -9.28297
   544  H   1.0    0.05    1.05    1.44    12.83404    49.50133    -7.96080
   545  H   1.0    0.09    1.08    1.44     5.42129    54.30480    -7.18771
   546  H   1.0    0.06    1.05    1.44    11.50585    58.80673    -1.90793
   547  H   1.0    0.09    1.08    1.44     3.73927    61.29482     2.02491
   548  H   1.0    0.06    1.05    1.44     8.69267    63.70610     5.39290
   549  H   1.0    0.09    1.12    1.45    30.43212    29.53006    17.60384
   550  H   1.0    0.05    1.05    1.44    36.63131    29.18398    13.30095
   551  H   1.0    0.09    1.07    1.44    23.34920     9.16902     6.36360
   552  H   1.0    0.05    1.04    1.43    17.30809     9.03560     3.49457
   553  H   1.0    0.09    1.06    1.44    -9.51518    47.27268    15.72384
   554  H   1.0    0.05    1.05    1.44   -12.83404    49.50133     7.96080
   555  H   1.0    0.09    1.08    1.44    -5.42129    54.30480     7.18771
   556  H   1.0    0.06    1.04    1.44    -8.82791    54.41482     1.76008
   557  H   1.0    0.09    1.08    1.44    -5.42129    31.67773    -7.18771
   558  H   1.0    0.05    1.04    1.44    -8.82791    31.56772    -1.76008
   559  H   1.0    0.09    1.08    1.44    -3.73927    24.68771     2.02491
   560  H   1.0    0.05    1.05    1.44    -8.69267    22.27643     5.39290

  Z AO/shell   Hii/eV     exponent
  1     Wed Apr 25 08:07:45 CEST 2018   EN: 2.200 GM2: 0.406  GM3: 0.0800  RAES: 1.40
     1s    -10.707211    1.230000
  6     Wed Apr 25 08:07:45 CEST 2018   EN: 2.550 GM2: 0.538  GM3: 0.1500  RAES: 3.00
     2s    -13.970922    2.096432
     2p    -10.063292    1.800000
  7     Wed Apr 25 08:07:45 CEST 2018   EN: 3.040 GM2: 0.461  GM3:-0.0640  RAES: 1.90
     2s    -16.686243    2.339881
     2p    -12.523956    2.014332
  8     Wed Apr 25 08:07:45 CEST 2018   EN: 3.440 GM2: 0.452  GM3:-0.0517  RAES: 1.80
     2s    -20.229985    2.439742
     2p    -15.503117    2.137023
 16     Tue Apr 24 11:44:34 CEST 2018   EN: 2.580 GM2: 0.340  GM3:-0.0502  RAES: 3.10
     3s    -20.029654    1.981333
     3p    -11.377694    2.025643
     3d     -0.420282    1.702555
 no old-style atom pair restraining (fixing) potential

molecular fragmentation (1/2 indicates fragments):
111111111111111111122222222222222222222222222222222222222222222222222222
222222222222222222222222222222222222222222222222222222222222222222222222
222222222222222222222222222222222222222222222222222222222222222222222222
222222222222222222222222222222222222222222222222222222222222222222222222
222222222222222222222222222222222222222222222222222222222222222222222222
222222222222222222222222222222222222222222222222222222222222222222222222
222222222222222222222222222222222222222222222222222222222222222222222222
22222222222222222222222222221122222222222222222222222222
# atoms in fragment 1/2:    21   539
 fragment masses (1/2) :      115.17     3629.40
CMA distance (Bohr)    :  17.004
constraining FC (au)   :  0.0500
           ------------------------------------------------- 
          |        Self-Consistent Charge Iterations        |
           ------------------------------------------------- 

 Ncao       : 1352
 Nao        : 1350
 Nshell     : 822
 Nel        : 1486
 T(el)      :   500.0
 intcut     :    35.0
 scfconv/Eh :  0.100E-06
   qconv/e  :  0.100E-04
 intneglect :  0.100E-08
 broydamp   :      0.400
 iter      E             dE          RMSdq      gap      omega  full diag
   1   -848.3589437 -0.848359E+03  0.467E+00    2.79       0.0  T
   2   -850.3961915 -0.203725E+01  0.221E+00    1.21       1.0  T
   3   -850.5333587 -0.137167E+00  0.126E+00    1.70       1.0  T
   4   -850.6948014 -0.161443E+00  0.275E-01    1.22       1.0  T
   5   -850.7024782 -0.767682E-02  0.139E-01    1.50       1.0  T
   6   -850.7044417 -0.196343E-02  0.647E-02    1.47       1.0  T
   7   -850.7049018 -0.460102E-03  0.348E-02    1.45       1.0  T
   8   -850.7050132 -0.111469E-03  0.180E-02    1.43       1.0  T
   9   -850.7050547 -0.414286E-04  0.951E-03    1.41       1.0  T
  10   -850.7050627 -0.798725E-05  0.462E-03    1.41       1.0  T
  11   -850.7050653 -0.260135E-05  0.210E-03    1.41       2.0  T
  12   -850.7050657 -0.441779E-06  0.914E-04    1.41       4.6  T
  13   -850.7050658 -0.823745E-07  0.447E-04    1.41       9.5  T
  14   -850.7050658 -0.145607E-07  0.186E-04    1.41      22.7  T
  15   -850.7050658 -0.496198E-08  0.887E-05    1.41      47.6  T
  16   -850.7050658 -0.669047E-09  0.447E-05    1.41      94.4  T
speedup 10.35
cpu  time for SCC   50.72 s
wall time for SCC    4.90 s

   *** convergence criteria satisfied after 16 iterations ***

          eigenvalues
 #    :         731        732        733        734        735        736        737        738
 occ. :        2.000      2.000      2.000      2.000      2.000      2.000      2.000      2.000
 eps  :        -9.921     -9.915     -9.909     -9.904     -9.890     -9.882     -9.804     -9.774
 #    :         739        740        741        742        743        744        745        746
 occ. :        2.000      2.000      2.000      2.000      2.000      0.000      0.000      0.000
 eps  :        -9.732     -9.529     -9.450     -9.440     -9.396     -7.990     -7.904     -7.825
 #    :         747        748        749        750        751        752        753        754
 occ. :        0.000      0.000      0.000      0.000      0.000      0.000      0.000      0.000
 eps  :        -7.795     -7.785     -7.772     -7.711     -7.684     -7.645     -7.645     -7.520


   #   Z            q   n(s)   n(p)   n(d)      C6AA      α(0)
   1   7 N     -0.388  1.330  4.058  0.000    30.050     8.141
   2   6 C      0.032  1.060  2.907  0.000    20.044     6.376
   3   6 C      0.198  1.092  2.710  0.000    23.777     7.986
   4   8 O     -0.381  1.772  4.608  0.000    21.297     6.187
   5   6 C     -0.028  1.069  2.960  0.000    21.037     6.524
   6   6 C     -0.070  1.056  3.014  0.000    21.834     6.652
   7   6 C     -0.136  1.048  3.088  0.000    23.164     6.863
   8   6 C     -0.110  1.040  3.071  0.000    22.674     6.791
   9   1 H      0.158  0.842  0.000  0.000     1.350     1.820
  10   1 H      0.066  0.934  0.000  0.000     2.132     2.283
  11   1 H      0.042  0.958  0.000  0.000     2.426     2.436
  12   1 H      0.056  0.944  0.000  0.000     2.250     2.346
  13   1 H      0.035  0.965  0.000  0.000     2.512     2.479
  14   1 H      0.050  0.950  0.000  0.000     2.321     2.383
  15   1 H      0.039  0.961  0.000  0.000     2.458     2.452
  16   1 H      0.067  0.933  0.000  0.000     2.115     2.274
  17   1 H      0.043  0.957  0.000  0.000     2.403     2.424
  18   1 H      0.033  0.967  0.000  0.000     2.545     2.495
  19   1 H      0.033  0.967  0.000  0.000     2.541     2.493
  20   7 N     -0.372  1.297  4.075  0.000    29.607     8.081
  21   6 C      0.048  1.047  2.906  0.000    19.791     6.336
  22   6 C      0.264  1.059  2.678  0.000    22.557     7.778
  23   8 O     -0.516  1.754  4.762  0.000    24.153     6.589
  24   6 C     -0.053  1.052  3.002  0.000    21.525     6.605
  25   6 C     -0.091  1.066  3.026  0.000    22.245     6.715
  26   6 C      0.367  1.028  2.605  0.000    20.784     7.461
  27   8 O     -0.664  1.781  4.884  0.000    27.755     7.063
  28   8 O     -0.668  1.792  4.876  0.000    27.850     7.075
  29   1 H      0.169  0.831  0.000  0.000     1.280     1.772
  30   1 H      0.001  0.999  0.000  0.000     3.048     2.730
  31   1 H      0.066  0.934  0.000  0.000     2.125     2.280
  32   1 H      0.021  0.979  0.000  0.000     2.716     2.577
  33   1 H      0.031  0.969  0.000  0.000     2.570     2.507
  34   1 H      0.034  0.966  0.000  0.000     2.524     2.484
  35   7 N     -0.172  1.256  3.916  0.000    24.714     7.383
  36   6 C      0.007  1.064  2.929  0.000    20.473     6.443
  37   6 C      0.267  1.047  2.686  0.000    22.489     7.766
  38   8 O     -0.479  1.750  4.729  0.000    23.320     6.474
  39   6 C     -0.105  1.067  3.038  0.000    22.512     6.755
  40   6 C     -0.096  1.063  3.033  0.000    22.340     6.730
  41   6 C     -0.048  1.072  2.975  0.000    21.516     6.620
  42   7 N     -0.146  1.217  3.929  0.000    24.150     7.299
  43   6 C      0.232  1.013  2.755  0.000    23.131     7.874
  44   7 N     -0.245  1.229  4.016  0.000    26.398     7.631
  45   7 N     -0.248  1.227  4.021  0.000    26.462     7.640
  46   1 H      0.241  0.759  0.000  0.000     0.920     1.502
  47   1 H      0.089  0.911  0.000  0.000     1.890     2.150
  48   1 H      0.095  0.905  0.000  0.000     1.828     2.114
  49   1 H      0.089  0.911  0.000  0.000     1.887     2.148
  50   1 H      0.088  0.912  0.000  0.000     1.898     2.155
  51   1 H      0.086  0.914  0.000  0.000     1.914     2.164
  52   1 H      0.110  0.890  0.000  0.000     1.696     2.036
  53   1 H      0.101  0.899  0.000  0.000     1.772     2.082
  54   1 H      0.225  0.775  0.000  0.000     0.986     1.555
  55   1 H      0.252  0.748  0.000  0.000     0.875     1.466
  56   1 H      0.247  0.753  0.000  0.000     0.893     1.481
  57   1 H      0.238  0.762  0.000  0.000     0.930     1.511
  58   1 H      0.247  0.753  0.000  0.000     0.894     1.481
  59   7 N     -0.164  1.237  3.927  0.000    24.541     7.358
  60   6 C      0.022  1.053  2.925  0.000    20.207     6.400
  61   6 C      0.277  1.050  2.674  0.000    22.320     7.737
  62   8 O     -0.480  1.745  4.734  0.000    23.336     6.477
  63   6 C     -0.086  1.065  3.020  0.000    22.136     6.698
  64   6 C      0.004  1.083  2.912  0.000    27.926     8.668
  65   6 C     -0.039  1.080  2.959  0.000    28.956     8.826
  66   6 C     -0.039  1.084  2.956  0.000    28.978     8.828
  67   6 C     -0.036  1.080  2.956  0.000    28.894     8.814
  68   6 C     -0.037  1.085  2.952  0.000    28.916     8.818
  69   6 C     -0.035  1.080  2.955  0.000    28.864     8.811
  70   1 H      0.224  0.776  0.000  0.000     0.993     1.561
  71   1 H      0.103  0.897  0.000  0.000     1.759     2.074
  72   1 H      0.099  0.901  0.000  0.000     1.792     2.093
  73   1 H      0.052  0.948  0.000  0.000     2.293     2.368
  74   1 H      0.050  0.950  0.000  0.000     2.319     2.381
  75   1 H      0.011  0.989  0.000  0.000     2.869     2.649
  76   1 H      0.064  0.936  0.000  0.000     2.154     2.295
  77   1 H      0.031  0.969  0.000  0.000     2.566     2.505
  78   1 H      0.046  0.954  0.000  0.000     2.364     2.405
  79   7 N     -0.186  1.257  3.929  0.000    25.037     7.432
  80   6 C      0.027  1.073  2.900  0.000    20.133     6.391
  81   6 C      0.280  1.046  2.674  0.000    22.254     7.724
  82   8 O     -0.518  1.750  4.768  0.000    24.194     6.595
  83   1 H      0.188  0.812  0.000  0.000     1.169     1.693
  84   1 H      0.070  0.930  0.000  0.000     2.089     2.260
  85   6 C     -0.040  1.044  2.996  0.000    21.283     6.567
  86   6 C     -0.091  1.068  3.023  0.000    22.242     6.716
  87   6 C      0.373  1.024  2.603  0.000    20.683     7.442
  88   8 O     -0.655  1.784  4.871  0.000    27.509     7.032
  89   8 O     -0.644  1.767  4.877  0.000    27.228     6.996
  90   1 H      0.039  0.961  0.000  0.000     2.462     2.454
  91   1 H      0.016  0.984  0.000  0.000     2.802     2.618
  92   1 H      0.031  0.969  0.000  0.000     2.566     2.505
  93   1 H      0.025  0.975  0.000  0.000     2.661     2.551
  94   7 N     -0.182  1.257  3.926  0.000    24.953     7.419
  95   6 C      0.036  1.062  2.902  0.000    19.978     6.364
  96   6 C      0.272  1.047  2.681  0.000    22.399     7.751
  97   8 O     -0.512  1.754  4.758  0.000    24.041     6.574
  98   6 C     -0.066  1.048  3.018  0.000    21.725     6.628
  99   6 C     -0.001  1.049  2.952  0.000    20.590     6.460
 100  16 S     -0.200  1.908  4.236  0.056   149.574    20.584
 101   6 C     -0.078  1.060  3.018  0.000    22.067     6.701
 102   1 H      0.227  0.773  0.000  0.000     0.976     1.548
 103   1 H      0.041  0.959  0.000  0.000     2.441     2.443
 104   1 H      0.060  0.940  0.000  0.000     2.198     2.318
 105   1 H      0.080  0.920  0.000  0.000     1.975     2.198
 106   1 H      0.039  0.961  0.000  0.000     2.462     2.454
 107   1 H      0.040  0.960  0.000  0.000     2.452     2.449
 108   1 H      0.106  0.894  0.000  0.000     1.731     2.057
 109   1 H      0.070  0.930  0.000  0.000     2.087     2.259
 110   1 H      0.062  0.938  0.000  0.000     2.171     2.304
 111   7 N     -0.160  1.239  3.921  0.000    24.460     7.345
 112   6 C      0.026  1.054  2.920  0.000    20.128     6.386
 113   6 C      0.274  1.042  2.684  0.000    22.368     7.745
 114   8 O     -0.499  1.735  4.764  0.000    23.758     6.535
 115   6 C     -0.081  1.059  3.021  0.000    22.041     6.684
 116   6 C      0.009  1.079  2.912  0.000    27.816     8.651
 117   6 C     -0.039  1.080  2.960  0.000    28.979     8.830
 118   6 C     -0.039  1.082  2.957  0.000    28.970     8.828
 119   6 C     -0.030  1.072  2.957  0.000    28.738     8.792
 120   6 C     -0.047  1.083  2.964  0.000    29.163     8.856
 121   6 C     -0.034  1.077  2.957  0.000    28.839     8.807
 122   1 H      0.238  0.762  0.000  0.000     0.933     1.513
 123   1 H      0.078  0.922  0.000  0.000     2.005     2.214
 124   1 H      0.069  0.931  0.000  0.000     2.093     2.263
 125   1 H      0.078  0.922  0.000  0.000     2.003     2.213
 126   1 H      0.022  0.978  0.000  0.000     2.708     2.573
 127   1 H      0.051  0.949  0.000  0.000     2.302     2.373
 128   1 H      0.042  0.958  0.000  0.000     2.419     2.432
 129   1 H      0.066  0.934  0.000  0.000     2.128     2.281
 130   1 H      0.057  0.943  0.000  0.000     2.237     2.339
 131   7 N     -0.183  1.253  3.930  0.000    24.974     7.422
 132   6 C      0.018  1.070  2.912  0.000    20.285     6.414
 133   6 C      0.278  1.051  2.671  0.000    22.290     7.731
 134   8 O     -0.514  1.749  4.765  0.000    24.089     6.580
 135   1 H      0.229  0.771  0.000  0.000     0.969     1.542
 136   1 H      0.097  0.903  0.000  0.000     1.817     2.108
 137   6 C     -0.073  1.057  3.016  0.000    21.907     6.664
 138   6 C     -0.068  1.052  3.016  0.000    21.801     6.648
 139   6 C     -0.024  1.056  2.968  0.000    21.104     6.558
 140   7 N     -0.182  1.242  3.940  0.000    24.945     7.418
 141   6 C      0.234  1.026  2.740  0.000    23.086     7.866
 142   7 N     -0.245  1.249  3.995  0.000    26.378     7.628
 143   7 N     -0.268  1.244  4.024  0.000    26.949     7.710
 144   1 H      0.086  0.914  0.000  0.000     1.918     2.166
 145   1 H      0.048  0.952  0.000  0.000     2.340     2.392
 146   1 H      0.066  0.934  0.000  0.000     2.129     2.282
 147   1 H      0.032  0.968  0.000  0.000     2.556     2.500
 148   1 H      0.091  0.909  0.000  0.000     1.866     2.136
 149   1 H      0.094  0.906  0.000  0.000     1.842     2.122
 150   1 H      0.234  0.766  0.000  0.000     0.949     1.526
 151   1 H      0.251  0.749  0.000  0.000     0.881     1.470
 152   1 H      0.244  0.756  0.000  0.000     0.906     1.491
 153   1 H      0.210  0.790  0.000  0.000     1.058     1.611
 154   1 H      0.228  0.772  0.000  0.000     0.973     1.545
 155   7 N     -0.187  1.262  3.924  0.000    25.050     7.433
 156   6 C      0.038  1.069  2.892  0.000    19.938     6.359
 157   6 C      0.280  1.043  2.677  0.000    22.263     7.727
 158   8 O     -0.516  1.749  4.767  0.000    24.148     6.588
 159   6 C     -0.053  1.053  3.000  0.000    21.523     6.605
 160   6 C     -0.081  1.061  3.020  0.000    22.043     6.685
 161   6 C      0.372  1.025  2.603  0.000    20.698     7.445
 162   8 O     -0.636  1.763  4.872  0.000    27.015     6.969
 163   8 O     -0.664  1.781  4.884  0.000    27.756     7.063
 164   1 H      0.218  0.782  0.000  0.000     1.019     1.582
 165   1 H      0.051  0.949  0.000  0.000     2.306     2.375
 166   1 H      0.041  0.959  0.000  0.000     2.437     2.441
 167   1 H      0.054  0.946  0.000  0.000     2.265     2.354
 168   1 H      0.015  0.985  0.000  0.000     2.807     2.620
 169   1 H      0.012  0.988  0.000  0.000     2.855     2.642
 170   7 N     -0.174  1.240  3.934  0.000    24.766     7.391
 171   6 C      0.034  1.053  2.913  0.000    19.995     6.366
 172   6 C      0.272  1.046  2.682  0.000    22.397     7.750
 173   8 O     -0.497  1.739  4.758  0.000    23.728     6.531
 174   6 C     -0.076  1.065  3.011  0.000    21.941     6.667
 175   6 C     -0.014  1.050  2.964  0.000    20.785     6.484
 176   6 C     -0.107  1.040  3.068  0.000    22.575     6.769
 177   6 C     -0.104  1.038  3.066  0.000    22.514     6.761
 178   1 H      0.226  0.774  0.000  0.000     0.982     1.552
 179   1 H      0.061  0.939  0.000  0.000     2.182     2.310
 180   1 H      0.061  0.939  0.000  0.000     2.193     2.316
 181   1 H      0.071  0.929  0.000  0.000     2.079     2.255
 182   1 H      0.045  0.955  0.000  0.000     2.377     2.411
 183   1 H      0.049  0.951  0.000  0.000     2.332     2.388
 184   1 H      0.033  0.967  0.000  0.000     2.544     2.494
 185   1 H      0.057  0.943  0.000  0.000     2.233     2.337
 186   1 H      0.043  0.957  0.000  0.000     2.408     2.427
 187   1 H      0.052  0.948  0.000  0.000     2.294     2.368
 188   1 H      0.010  0.990  0.000  0.000     2.891     2.659
 189   7 N     -0.185  1.249  3.936  0.000    25.011     7.428
 190   6 C      0.038  1.054  2.909  0.000    19.937     6.357
 191   6 C      0.271  1.047  2.682  0.000    22.422     7.755
 192   8 O     -0.519  1.768  4.751  0.000    24.210     6.597
 193   6 C     -0.111  1.056  3.055  0.000    22.594     6.763
 194   6 C      0.296  1.019  2.684  0.000    21.969     7.675
 195   8 O     -0.502  1.746  4.756  0.000    23.839     6.546
 196   7 N     -0.251  1.251  4.000  0.000    26.537     7.651
 197   1 H      0.228  0.772  0.000  0.000     0.973     1.545
 198   1 H      0.084  0.916  0.000  0.000     1.934     2.175
 199   1 H      0.104  0.896  0.000  0.000     1.746     2.066
 200   1 H      0.078  0.922  0.000  0.000     1.999     2.211
 201   1 H      0.254  0.746  0.000  0.000     0.866     1.458
 202   1 H      0.226  0.774  0.000  0.000     0.980     1.551
 203   7 N     -0.185  1.255  3.929  0.000    25.003     7.426
 204   6 C      0.034  1.059  2.907  0.000    20.014     6.370
 205   6 C      0.283  1.044  2.673  0.000    22.208     7.718
 206   8 O     -0.517  1.753  4.764  0.000    24.174     6.592
 207   6 C     -0.043  1.048  2.995  0.000    21.330     6.574
 208   6 C     -0.099  1.063  3.036  0.000    22.394     6.738
 209   6 C      0.364  1.028  2.608  0.000    20.829     7.469
 210   8 O     -0.634  1.789  4.846  0.000    26.974     6.963
 211   8 O     -0.570  1.732  4.838  0.000    25.396     6.756
 212   1 H      0.225  0.775  0.000  0.000     0.987     1.556
 213   1 H      0.062  0.938  0.000  0.000     2.181     2.310
 214   1 H      0.036  0.964  0.000  0.000     2.510     2.477
 215   1 H      0.032  0.968  0.000  0.000     2.561     2.503
 216   1 H      0.029  0.971  0.000  0.000     2.594     2.519
 217   1 H      0.059  0.941  0.000  0.000     2.215     2.328
 218   7 N     -0.196  1.254  3.942  0.000    25.262     7.465
 219   6 C      0.034  1.063  2.902  0.000    20.012     6.372
 220   6 C      0.271  1.055  2.674  0.000    22.421     7.753
 221   8 O     -0.491  1.755  4.736  0.000    23.588     6.512
 222   6 C     -0.112  1.040  3.073  0.000    22.708     6.795
 223   1 H      0.214  0.786  0.000  0.000     1.037     1.595
 224   1 H      0.058  0.942  0.000  0.000     2.227     2.334
 225   1 H      0.061  0.939  0.000  0.000     2.193     2.316
 226   1 H      0.057  0.943  0.000  0.000     2.237     2.339
 227   1 H      0.071  0.929  0.000  0.000     2.079     2.255
 228   7 N     -0.179  1.247  3.932  0.000    24.874     7.407
 229   6 C      0.041  1.041  2.917  0.000    19.887     6.350
 230   6 C      0.213  1.076  2.712  0.000    23.497     7.939
 231   8 O     -0.376  1.750  4.626  0.000    21.215     6.175
 232   6 C     -0.075  1.062  3.014  0.000    21.912     6.660
 233   6 C     -0.014  1.059  2.956  0.000    20.795     6.486
 234   6 C     -0.116  1.041  3.075  0.000    22.753     6.797
 235   6 C     -0.117  1.041  3.076  0.000    22.800     6.809
 236   1 H      0.218  0.782  0.000  0.000     1.018     1.581
 237   1 H      0.087  0.913  0.000  0.000     1.907     2.159
 238   1 H      0.057  0.943  0.000  0.000     2.229     2.335
 239   1 H      0.073  0.927  0.000  0.000     2.054     2.241
 240   1 H      0.045  0.955  0.000  0.000     2.387     2.416
 241   1 H      0.059  0.941  0.000  0.000     2.216     2.328
 242   1 H      0.033  0.967  0.000  0.000     2.542     2.493
 243   1 H      0.058  0.942  0.000  0.000     2.223     2.331
 244   1 H      0.053  0.947  0.000  0.000     2.279     2.361
 245   1 H      0.053  0.947  0.000  0.000     2.277     2.360
 246   1 H      0.030  0.970  0.000  0.000     2.588     2.516
 247   8 O     -0.637  1.763  4.874  0.000    26.099     6.895
 248   1 H      0.319  0.681  0.000  0.000     0.666     1.282
 249   1 H      0.302  0.698  0.000  0.000     0.715     1.328
 250   8 O     -0.622  1.742  4.880  0.000    25.727     6.846
 251   1 H      0.317  0.683  0.000  0.000     0.672     1.288
 252   1 H      0.280  0.720  0.000  0.000     0.784     1.391
 253   8 O     -0.630  1.750  4.880  0.000    25.920     6.871
 254   1 H      0.310  0.690  0.000  0.000     0.691     1.306
 255   1 H      0.294  0.706  0.000  0.000     0.738     1.349
 256   8 O     -0.628  1.761  4.867  0.000    25.869     6.865
 257   1 H      0.316  0.684  0.000  0.000     0.675     1.291
 258   1 H      0.296  0.704  0.000  0.000     0.733     1.345
 259   8 O     -0.634  1.759  4.875  0.000    26.003     6.882
 260   1 H      0.311  0.689  0.000  0.000     0.690     1.304
 261   1 H      0.298  0.702  0.000  0.000     0.726     1.339
 262   8 O     -0.631  1.743  4.888  0.000    25.934     6.873
 263   1 H      0.299  0.701  0.000  0.000     0.723     1.335
 264   1 H      0.307  0.693  0.000  0.000     0.700     1.314
 265   8 O     -0.619  1.768  4.851  0.000    25.648     6.835
 266   1 H      0.289  0.711  0.000  0.000     0.755     1.365
 267   1 H      0.330  0.670  0.000  0.000     0.638     1.255
 268   8 O     -0.608  1.740  4.869  0.000    25.390     6.801
 269   1 H      0.277  0.723  0.000  0.000     0.795     1.401
 270   1 H      0.307  0.693  0.000  0.000     0.701     1.315
 271   7 N     -0.392  1.326  4.066  0.000    30.154     8.155
 272   6 C      0.034  1.061  2.906  0.000    20.019     6.372
 273   6 C      0.197  1.088  2.715  0.000    23.792     7.988
 274   8 O     -0.352  1.763  4.590  0.000    20.753     6.108
 275   6 C     -0.058  1.048  3.010  0.000    21.611     6.617
 276   6 C     -0.106  1.059  3.047  0.000    22.500     6.751
 277   6 C      0.294  1.029  2.677  0.000    22.018     7.683
 278   8 O     -0.496  1.732  4.764  0.000    23.700     6.527
 279   7 N     -0.268  1.261  4.008  0.000    26.949     7.710
 280   1 H      0.159  0.841  0.000  0.000     1.343     1.815
 281   1 H      0.054  0.946  0.000  0.000     2.271     2.357
 282   1 H      0.054  0.946  0.000  0.000     2.266     2.354
 283   1 H      0.058  0.942  0.000  0.000     2.217     2.328
 284   1 H      0.064  0.936  0.000  0.000     2.158     2.297
 285   1 H      0.060  0.940  0.000  0.000     2.198     2.318
 286   1 H      0.226  0.774  0.000  0.000     0.985     1.554
 287   1 H      0.229  0.771  0.000  0.000     0.970     1.543
 288   7 N     -0.374  1.312  4.062  0.000    29.669     8.090
 289   6 C      0.034  1.057  2.909  0.000    20.027     6.375
 290   6 C      0.205  1.083  2.712  0.000    23.650     7.965
 291   8 O     -0.367  1.757  4.610  0.000    21.025     6.148
 292   6 C     -0.076  1.063  3.013  0.000    21.939     6.668
 293   6 C     -0.093  1.063  3.030  0.000    22.282     6.721
 294   6 C     -0.030  1.057  2.973  0.000    21.200     6.572
 295   7 N     -0.139  1.215  3.924  0.000    24.019     7.279
 296   6 C      0.232  1.022  2.746  0.000    23.140     7.876
 297   7 N     -0.233  1.243  3.990  0.000    26.107     7.589
 298   7 N     -0.252  1.231  4.021  0.000    26.564     7.655
 299   1 H      0.157  0.843  0.000  0.000     1.352     1.821
 300   1 H      0.060  0.940  0.000  0.000     2.197     2.318
 301   1 H      0.063  0.937  0.000  0.000     2.168     2.302
 302   1 H      0.050  0.950  0.000  0.000     2.319     2.381
 303   1 H      0.068  0.932  0.000  0.000     2.107     2.270
 304   1 H      0.077  0.923  0.000  0.000     2.013     2.219
 305   1 H      0.076  0.924  0.000  0.000     2.020     2.223
 306   1 H      0.081  0.919  0.000  0.000     1.971     2.196
 307   1 H      0.237  0.763  0.000  0.000     0.937     1.516
 308   1 H      0.239  0.761  0.000  0.000     0.927     1.509
 309   1 H      0.218  0.782  0.000  0.000     1.017     1.579
 310   1 H      0.257  0.743  0.000  0.000     0.856     1.449
 311   1 H      0.233  0.767  0.000  0.000     0.952     1.528
 312   7 N     -0.387  1.323  4.063  0.000    30.004     8.135
 313   6 C      0.033  1.052  2.915  0.000    20.039     6.376
 314   6 C      0.215  1.072  2.713  0.000    23.461     7.933
 315   8 O     -0.375  1.744  4.631  0.000    21.196     6.173
 316   6 C     -0.069  1.062  3.007  0.000    21.802     6.645
 317   6 C     -0.011  1.052  2.959  0.000    20.745     6.478
 318   6 C     -0.129  1.041  3.088  0.000    23.021     6.838
 319   6 C     -0.118  1.045  3.073  0.000    22.804     6.808
 320   1 H      0.163  0.837  0.000  0.000     1.314     1.796
 321   1 H      0.060  0.940  0.000  0.000     2.202     2.320
 322   1 H      0.056  0.944  0.000  0.000     2.245     2.343
 323   1 H      0.051  0.949  0.000  0.000     2.307     2.375
 324   1 H      0.021  0.979  0.000  0.000     2.712     2.575
 325   1 H      0.040  0.960  0.000  0.000     2.447     2.446
 326   1 H      0.051  0.949  0.000  0.000     2.308     2.376
 327   1 H      0.047  0.953  0.000  0.000     2.359     2.402
 328   1 H      0.026  0.974  0.000  0.000     2.641     2.541
 329   1 H      0.045  0.955  0.000  0.000     2.377     2.411
 330   1 H      0.042  0.958  0.000  0.000     2.417     2.431
 331   7 N     -0.379  1.294  4.086  0.000    29.806     8.108
 332   6 C      0.045  1.052  2.903  0.000    19.833     6.344
 333   6 C      0.189  1.101  2.710  0.000    23.954     8.015
 334   8 O     -0.365  1.740  4.626  0.000    21.003     6.144
 335   6 C     -0.078  1.062  3.016  0.000    21.987     6.675
 336   6 C      0.013  1.082  2.905  0.000    27.730     8.637
 337   6 C     -0.041  1.080  2.961  0.000    29.015     8.835
 338   6 C     -0.040  1.080  2.960  0.000    29.000     8.833
 339   6 C     -0.031  1.073  2.958  0.000    28.764     8.796
 340   6 C     -0.041  1.081  2.960  0.000    29.019     8.835
 341   6 C     -0.033  1.073  2.960  0.000    28.831     8.805
 342   1 H      0.167  0.833  0.000  0.000     1.293     1.781
 343   1 H      0.058  0.942  0.000  0.000     2.221     2.331
 344   1 H      0.061  0.939  0.000  0.000     2.183     2.311
 345   1 H      0.067  0.933  0.000  0.000     2.122     2.278
 346   1 H      0.049  0.951  0.000  0.000     2.332     2.388
 347   1 H      0.037  0.963  0.000  0.000     2.487     2.466
 348   1 H      0.038  0.962  0.000  0.000     2.477     2.461
 349   1 H      0.025  0.975  0.000  0.000     2.656     2.548
 350   1 H      0.019  0.981  0.000  0.000     2.744     2.590
 351   7 N     -0.387  1.299  4.088  0.000    30.009     8.136
 352   6 C      0.036  1.054  2.910  0.000    19.979     6.367
 353   6 C      0.262  1.053  2.685  0.000    22.582     7.782
 354   8 O     -0.503  1.746  4.757  0.000    23.849     6.548
 355   6 C     -0.076  1.065  3.012  0.000    21.949     6.669
 356   6 C     -0.007  1.050  2.957  0.000    20.671     6.466
 357   6 C     -0.109  1.040  3.069  0.000    22.602     6.773
 358   6 C     -0.107  1.038  3.068  0.000    22.564     6.768
 359   1 H      0.156  0.844  0.000  0.000     1.359     1.826
 360   1 H      0.034  0.966  0.000  0.000     2.530     2.487
 361   1 H      0.053  0.947  0.000  0.000     2.281     2.362
 362   1 H      0.049  0.951  0.000  0.000     2.335     2.390
 363   1 H      0.031  0.969  0.000  0.000     2.567     2.506
 364   1 H      0.036  0.964  0.000  0.000     2.505     2.475
 365   1 H      0.032  0.968  0.000  0.000     2.565     2.504
 366   1 H      0.044  0.956  0.000  0.000     2.397     2.421
 367   1 H      0.035  0.965  0.000  0.000     2.517     2.481
 368   1 H      0.040  0.960  0.000  0.000     2.444     2.445
 369   1 H      0.024  0.976  0.000  0.000     2.668     2.554
 370   7 N     -0.168  1.245  3.923  0.000    24.632     7.371
 371   6 C      0.034  1.053  2.913  0.000    20.001     6.368
 372   6 C      0.197  1.088  2.714  0.000    23.794     7.989
 373   8 O     -0.368  1.769  4.599  0.000    21.049     6.151
 374   6 C     -0.118  1.059  3.059  0.000    22.727     6.783
 375   6 C      0.295  1.018  2.687  0.000    21.987     7.678
 376   8 O     -0.517  1.763  4.755  0.000    24.170     6.592
 377   7 N     -0.247  1.245  4.002  0.000    26.444     7.637
 378   1 H      0.237  0.763  0.000  0.000     0.937     1.517
 379   1 H      0.095  0.905  0.000  0.000     1.829     2.115
 380   1 H      0.106  0.894  0.000  0.000     1.728     2.056
 381   1 H      0.086  0.914  0.000  0.000     1.918     2.166
 382   1 H      0.231  0.769  0.000  0.000     0.959     1.534
 383   1 H      0.225  0.775  0.000  0.000     0.986     1.555
 384   7 N     -0.397  1.303  4.094  0.000    30.297     8.175
 385   6 C      0.049  1.038  2.913  0.000    19.763     6.332
 386   6 C      0.199  1.086  2.714  0.000    23.753     7.982
 387   8 O     -0.401  1.758  4.643  0.000    21.699     6.245
 388   6 C     -0.079  1.066  3.013  0.000    21.981     6.671
 389   6 C     -0.012  1.057  2.955  0.000    20.759     6.481
 390   6 C     -0.126  1.045  3.081  0.000    22.940     6.824
 391   6 C     -0.112  1.039  3.073  0.000    22.700     6.794
 392   1 H      0.175  0.825  0.000  0.000     1.241     1.745
 393   1 H      0.042  0.958  0.000  0.000     2.418     2.432
 394   1 H      0.064  0.936  0.000  0.000     2.151     2.293
 395   1 H      0.051  0.949  0.000  0.000     2.309     2.376
 396   1 H      0.047  0.953  0.000  0.000     2.361     2.403
 397   1 H      0.043  0.957  0.000  0.000     2.405     2.425
 398   1 H      0.049  0.951  0.000  0.000     2.327     2.386
 399   1 H      0.054  0.946  0.000  0.000     2.265     2.353
 400   1 H      0.035  0.965  0.000  0.000     2.514     2.479
 401   1 H      0.045  0.955  0.000  0.000     2.379     2.412
 402   1 H      0.023  0.977  0.000  0.000     2.684     2.562
 403   7 N     -0.384  1.318  4.066  0.000    29.922     8.124
 404   6 C      0.038  1.058  2.904  0.000    19.944     6.360
 405   6 C      0.196  1.090  2.715  0.000    23.823     7.993
 406   8 O     -0.371  1.764  4.607  0.000    21.112     6.160
 407   1 H      0.163  0.837  0.000  0.000     1.318     1.799
 408   1 H      0.060  0.940  0.000  0.000     2.196     2.318
 409   6 C     -0.076  1.055  3.021  0.000    21.948     6.668
 410   6 C      0.003  1.073  2.924  0.000    27.956     8.673
 411   6 C     -0.041  1.081  2.960  0.000    29.018     8.834
 412   6 C     -0.044  1.082  2.962  0.000    29.089     8.845
 413   6 C     -0.058  1.071  2.987  0.000    29.434     8.897
 414   6 C     -0.083  1.079  3.004  0.000    30.081     8.994
 415   6 C      0.137  1.044  2.819  0.000    25.013     8.197
 416   8 O     -0.438  1.719  4.719  0.000    21.596     6.273
 417   1 H      0.062  0.938  0.000  0.000     2.179     2.308
 418   1 H      0.057  0.943  0.000  0.000     2.237     2.339
 419   1 H      0.055  0.945  0.000  0.000     2.264     2.353
 420   1 H      0.059  0.941  0.000  0.000     2.214     2.327
 421   1 H      0.041  0.959  0.000  0.000     2.430     2.438
 422   1 H      0.057  0.943  0.000  0.000     2.232     2.336
 423   1 H      0.318  0.682  0.000  0.000     0.670     1.285
 424   7 N     -0.393  1.323  4.070  0.000    30.181     8.159
 425   6 C      0.034  1.062  2.904  0.000    20.024     6.374
 426   6 C      0.200  1.090  2.710  0.000    23.750     7.981
 427   8 O     -0.388  1.768  4.620  0.000    21.450     6.209
 428   6 C     -0.045  1.048  2.997  0.000    21.369     6.581
 429   6 C     -0.087  1.060  3.027  0.000    22.157     6.701
 430   6 C      0.360  1.025  2.615  0.000    20.896     7.481
 431   8 O     -0.637  1.784  4.853  0.000    27.058     6.974
 432   8 O     -0.623  1.762  4.861  0.000    26.682     6.926
 433   1 H      0.164  0.836  0.000  0.000     1.309     1.792
 434   1 H      0.058  0.942  0.000  0.000     2.219     2.329
 435   1 H      0.041  0.959  0.000  0.000     2.433     2.439
 436   1 H      0.024  0.976  0.000  0.000     2.669     2.555
 437   1 H      0.041  0.959  0.000  0.000     2.442     2.444
 438   1 H      0.047  0.953  0.000  0.000     2.358     2.402
 439   7 N     -0.401  1.325  4.076  0.000    30.398     8.188
 440   6 C      0.027  1.062  2.911  0.000    20.130     6.389
 441   6 C      0.261  1.055  2.684  0.000    22.605     7.787
 442   8 O     -0.485  1.751  4.734  0.000    23.445     6.492
 443   6 C     -0.061  1.050  3.011  0.000    21.625     6.613
 444   6 C     -0.007  1.054  2.953  0.000    20.701     6.477
 445  16 S     -0.247  1.926  4.259  0.062   151.653    20.727
 446   6 C     -0.051  1.052  2.999  0.000    21.559     6.624
 447   1 H      0.162  0.838  0.000  0.000     1.325     1.803
 448   1 H      0.047  0.953  0.000  0.000     2.360     2.402
 449   1 H      0.049  0.951  0.000  0.000     2.334     2.389
 450   1 H      0.047  0.953  0.000  0.000     2.362     2.404
 451   1 H      0.061  0.939  0.000  0.000     2.190     2.314
 452   1 H      0.079  0.921  0.000  0.000     1.987     2.204
 453   1 H      0.047  0.953  0.000  0.000     2.352     2.398
 454   1 H      0.050  0.950  0.000  0.000     2.319     2.381
 455   1 H      0.062  0.938  0.000  0.000     2.173     2.305
 456   7 N     -0.147  1.231  3.916  0.000    24.188     7.304
 457   6 C      0.033  1.052  2.915  0.000    20.026     6.371
 458   6 C      0.202  1.087  2.711  0.000    23.712     7.975
 459   8 O     -0.355  1.756  4.599  0.000    20.806     6.116
 460   6 C     -0.079  1.061  3.018  0.000    22.000     6.677
 461   6 C      0.011  1.079  2.910  0.000    27.762     8.642
 462   6 C     -0.040  1.080  2.961  0.000    29.003     8.833
 463   6 C     -0.040  1.080  2.960  0.000    28.988     8.831
 464   6 C     -0.030  1.073  2.957  0.000    28.754     8.794
 465   6 C     -0.034  1.082  2.952  0.000    28.856     8.810
[...]
   207  C   3.988    C  208 1.010    H  214 0.975    H  215 0.974    C  204 0.967
   208  C   3.986    C  207 1.010    H  216 0.970    H  217 0.956    C  209 0.924    O  210 0.051
   209  C   3.934    O  210 1.508    O  211 1.460    C  208 0.924
   210  O   1.819    C  209 1.508    O  211 0.201    C  208 0.051
   211  O   1.879    C  209 1.460    O  210 0.201    H  150 0.081
   212  H   0.949    N  203 0.885
   213  H   0.996    C  204 0.952
   214  H   0.999    C  207 0.975
   215  H   0.998    C  207 0.974
   216  H   0.999    C  208 0.970
   217  H   0.997    C  208 0.956
   218  N   3.459    C  205 1.301    C  219 0.974    H  223 0.898    O  206 0.192
   219  C   3.960    C  222 0.996    N  218 0.974    H  224 0.955    C  220 0.933
   220  C   3.948    O  221 1.646    N  228 1.290    C  219 0.933
   221  O   1.956    C  220 1.646    N  228 0.201
   222  C   3.987    C  219 0.996    H  227 0.982    H  225 0.981    H  226 0.978
   223  H   0.954    N  218 0.898
   224  H   0.996    C  219 0.955
   225  H   0.996    C  222 0.981
   226  H   0.996    C  222 0.978
   227  H   0.995    C  222 0.982
   228  N   3.464    C  220 1.290    C  229 0.974    H  236 0.903    O  221 0.201
   229  C   3.960    C  230 0.998    N  228 0.974    C  232 0.963    H  237 0.931    O  231 0.053
   230  C   3.907    O  231 1.871    C  229 0.998    H  536 0.956
   231  O   2.015    C  230 1.871    C  229 0.053
   232  C   3.975    C  233 0.976    H  238 0.969    H  239 0.967    C  229 0.963
   233  C   3.989    C  234 1.011    C  235 1.010    C  232 0.976    H  240 0.965
   234  C   3.992    C  233 1.011    H  243 0.983    H  242 0.981    H  241 0.980
   235  C   3.994    C  233 1.010    H  245 0.984    H  246 0.984    H  244 0.981
   236  H   0.952    N  228 0.903
   237  H   0.992    C  229 0.931
   238  H   0.997    C  232 0.969
   239  H   0.994    C  232 0.967
   240  H   0.998    C  233 0.965
   241  H   0.995    C  234 0.980
   242  H   0.999    C  234 0.981
   243  H   0.996    C  234 0.983
   244  H   0.997    C  235 0.981
   245  H   0.997    C  235 0.984
   246  H   0.999    C  235 0.984
   247  O   1.802    H  249 0.907    H  248 0.867
   248  H   0.898    O  247 0.867
   249  H   0.909    O  247 0.907
   250  O   1.821    H  252 0.915    H  251 0.844
   251  H   0.899    O  250 0.844
   252  H   0.922    O  250 0.915
   253  O   1.801    H  255 0.912    H  254 0.865
   254  H   0.904    O  253 0.865
   255  H   0.913    O  253 0.912
   256  O   1.804    H  257 0.900    H  258 0.889
   257  H   0.900    O  256 0.900
   258  H   0.912    O  256 0.889
   259  O   1.804    H  260 0.901    H  261 0.869
   260  H   0.903    O  259 0.901
   261  H   0.911    O  259 0.869
   262  O   1.830    H  263 0.907    H  264 0.838
   263  H   0.910    O  262 0.907
   264  H   0.906    O  262 0.838    O  432 0.063
   265  O   1.811    H  266 0.910    H  267 0.889
   266  H   0.917    O  265 0.910
   267  H   0.891    O  265 0.889
   268  O   1.824    H  269 0.913    H  270 0.856
   269  H   0.923    O  268 0.913
   270  H   0.906    O  268 0.856
   271  N   2.991    C  272 1.006    H  280 0.960    H  537 0.952
   272  C   3.985    N  271 1.006    C  275 0.972    H  281 0.966    C  273 0.961    O  274 0.057
   273  C   3.894    O  274 1.926    C  272 0.961    H  538 0.954
   274  O   2.056    C  273 1.926    C  272 0.057
   275  C   3.993    C  276 0.998    C  272 0.972    H  283 0.972    H  282 0.971
   276  C   3.995    C  275 0.998    H  285 0.972    H  284 0.959    C  277 0.954    O  278 0.057
   277  C   3.946    O  278 1.625    N  279 1.334    C  276 0.954
   278  O   1.965    C  277 1.625    N  279 0.197    C  276 0.057
   279  N   3.415    C  277 1.334    H  286 0.927    H  287 0.921    O  278 0.197
   280  H   0.975    N  271 0.960
   281  H   0.997    C  272 0.966
   282  H   0.997    C  275 0.971
   283  H   0.997    C  275 0.972
   284  H   0.996    C  276 0.959
   285  H   0.996    C  276 0.972
   286  H   0.949    N  279 0.927
   287  H   0.947    N  279 0.921
   288  N   2.994    C  289 1.006    H  299 0.959    H  539 0.953
   289  C   3.985    N  288 1.006    C  290 0.985    H  300 0.964    C  292 0.954    O  291 0.055
   290  C   3.896    O  291 1.906    C  289 0.985    H  540 0.953
   291  O   2.043    C  290 1.906    C  289 0.055
   292  C   3.989    C  293 1.005    H  302 0.975    H  301 0.971    C  289 0.954
   293  C   3.986    C  292 1.005    C  294 0.998    H  303 0.976    H  304 0.962
   294  C   3.949    C  293 0.998    N  295 0.979    H  306 0.965    H  305 0.956
   295  N   3.466    C  296 1.322    C  294 0.979    H  307 0.906    N  298 0.104    N  297 0.097
   296  C   3.975    N  295 1.322    N  298 1.312    N  297 1.307
   297  N   3.385    C  296 1.307    H  309 0.931    H  308 0.908    N  295 0.097    N  298 0.096
   298  N   3.393    C  296 1.312    H  311 0.926    H  310 0.914    N  295 0.104    N  297 0.096
   299  H   0.975    N  288 0.959
   300  H   0.996    C  289 0.964
   301  H   0.996    C  292 0.971
   302  H   0.997    C  292 0.975
   303  H   0.995    C  293 0.976
   304  H   0.994    C  293 0.962
   305  H   0.994    C  294 0.956
   306  H   0.993    C  294 0.965
   307  H   0.944    N  295 0.906
   308  H   0.943    N  297 0.908
   309  H   0.952    N  297 0.931
   310  H   0.934    N  298 0.914
   311  H   0.945    N  298 0.926
   312  N   2.990    C  313 1.006    H  320 0.957    H  541 0.952
   313  C   3.986    N  312 1.006    C  314 1.002    H  321 0.957    C  316 0.940    O  315 0.055
   314  C   3.904    O  315 1.886    C  313 1.002    H  542 0.954
   315  O   2.033    C  314 1.886    C  313 0.055
   316  C   3.992    C  317 1.004    H  323 0.973    H  322 0.965    C  313 0.940
   317  C   3.997    C  318 1.013    C  316 1.004    C  319 0.998    H  324 0.967
   318  C   3.993    C  317 1.013    H  327 0.981    H  325 0.981    H  326 0.978
   319  C   3.995    C  317 0.998    H  330 0.987    H  328 0.986    H  329 0.985
   320  H   0.973    N  312 0.957
   321  H   0.996    C  313 0.957
   322  H   0.997    C  316 0.965
   323  H   0.997    C  316 0.973
   324  H   0.999    C  317 0.967
   325  H   0.998    C  318 0.981
   326  H   0.997    C  318 0.978
   327  H   0.998    C  318 0.981
   328  H   0.999    C  319 0.986
   329  H   0.998    C  319 0.985
   330  H   0.998    C  319 0.987
   331  N   3.018    C  332 1.040    H  543 0.952    H  342 0.950
   332  C   3.986    N  331 1.040    C  333 0.970    H  343 0.943    C  335 0.939    O  334 0.058
   333  C   3.887    O  334 1.873    C  332 0.970    H  544 0.954
   334  O   2.047    C  333 1.873    C  332 0.058
   335  C   3.991    C  336 1.002    H  344 0.973    H  345 0.961    C  332 0.939
   336  C   3.987    C  338 1.464    C  337 1.369    C  335 1.002    C  341 0.104
   337  C   3.991    C  339 1.476    C  336 1.369    H  346 0.962    C  340 0.123
   338  C   3.989    C  336 1.464    C  340 1.396    H  347 0.968    C  339 0.104
   339  C   3.993    C  337 1.476    C  341 1.417    H  348 0.966    C  338 0.104
   340  C   3.989    C  341 1.469    C  338 1.396    H  349 0.960    C  337 0.123
   341  C   3.992    C  340 1.469    C  339 1.417    H  350 0.966    C  336 0.104
   342  H   0.972    N  331 0.950
   343  H   0.997    C  332 0.943
   344  H   0.996    C  335 0.973
   345  H   0.995    C  335 0.961
   346  H   0.998    C  337 0.962
   347  H   0.999    C  338 0.968
   348  H   0.998    C  339 0.966
   349  H   0.999    C  340 0.960
   350  H   0.999    C  341 0.966
   351  N   3.005    C  352 1.025    H  545 0.956    H  359 0.951
   352  C   3.982    N  351 1.025    C  355 0.969    H  360 0.959    C  353 0.934
   353  C   3.944    O  354 1.607    N  370 1.320    C  352 0.934
   354  O   1.937    C  353 1.607    N  370 0.192
   355  C   3.992    C  356 0.991    H  362 0.973    H  361 0.970    C  352 0.969
   356  C   3.996    C  358 1.011    C  357 1.010    C  355 0.991    H  363 0.966
   357  C   3.994    C  356 1.010    H  364 0.984    H  365 0.983    H  366 0.983
   358  C   3.995    C  356 1.011    H  367 0.984    H  369 0.983    H  368 0.971
   359  H   0.975    N  351 0.951
   360  H   0.998    C  352 0.959
   361  H   0.997    C  355 0.970
   362  H   0.998    C  355 0.973
   363  H   0.998    C  356 0.966
   364  H   0.998    C  357 0.984
   365  H   0.999    C  357 0.983
   366  H   0.998    C  357 0.983
   367  H   0.999    C  358 0.984
   368  H   0.998    C  358 0.971
   369  H   0.999    C  358 0.983
   370  N   3.473    C  353 1.320    C  371 0.970    H  378 0.887    O  354 0.192
   371  C   3.971    C  372 0.988    N  370 0.970    C  374 0.964    H  379 0.938
   372  C   3.905    O  373 1.882    C  371 0.988    H  546 0.957
   373  O   2.017    C  372 1.882
   374  C   3.982    H  381 0.968    C  371 0.964    C  375 0.959    H  380 0.942    O  376 0.052
   375  C   3.955    O  376 1.618    N  377 1.355    C  374 0.959
   376  O   1.923    C  375 1.618    N  377 0.202    C  374 0.052
   377  N   3.431    C  375 1.355    H  382 0.917    H  383 0.908    O  376 0.202
   378  H   0.944    N  370 0.887
   379  H   0.991    C  371 0.938
   380  H   0.989    C  374 0.942
   381  H   0.993    C  374 0.968
   382  H   0.946    N  377 0.917
   383  H   0.949    N  377 0.908
   384  N   2.993    C  385 1.007    H  547 0.959    H  392 0.934
   385  C   3.986    N  384 1.007    C  386 1.003    C  388 0.961    H  393 0.944    O  387 0.052
   386  C   3.896    O  387 1.859    C  385 1.003    H  548 0.953
   387  O   2.001    C  386 1.859    C  385 0.052
   388  C   3.988    C  389 0.980    H  395 0.970    H  394 0.968    C  385 0.961
   389  C   3.993    C  390 1.012    C  391 1.009    C  388 0.980    H  396 0.964
   390  C   3.992    C  389 1.012    H  399 0.981    H  398 0.979    H  397 0.977
   391  C   3.995    C  389 1.009    H  401 0.985    H  402 0.984    H  400 0.982
   392  H   0.969    N  384 0.934
   393  H   0.998    C  385 0.944
   394  H   0.996    C  388 0.968
   395  H   0.997    C  388 0.970
   396  H   0.998    C  389 0.964
   397  H   0.996    C  390 0.977
   398  H   0.998    C  390 0.979
   399  H   0.997    C  390 0.981
   400  H   0.998    C  391 0.982
   401  H   0.998    C  391 0.985
   402  H   0.999    C  391 0.984
   403  N   3.007    C  404 1.023    H  407 0.950    H  549 0.938
   404  C   3.985    N  403 1.023    C  405 0.984    H  408 0.953    C  409 0.929    O  406 0.059
   405  C   3.896    O  406 1.895    C  404 0.984    H  550 0.956
   406  O   2.033    C  405 1.895    C  404 0.059
   407  H   0.973    N  403 0.950
   408  H   0.996    C  404 0.953
   409  C   3.992    C  410 1.015    H  418 0.972    H  417 0.968    C  404 0.929
   410  C   3.989    C  412 1.420    C  411 1.379    C  409 1.015    C  415 0.094
   411  C   3.990    C  413 1.454    C  410 1.379    H  419 0.963    C  414 0.106
   412  C   3.988    C  414 1.438    C  410 1.420    H  420 0.965    C  413 0.102
   413  C   3.989    C  411 1.454    C  415 1.371    H  421 0.966    C  412 0.102
   414  C   3.986    C  412 1.438    C  415 1.374    H  422 0.959    C  411 0.106    O  416 0.057
   415  C   3.928    C  414 1.374    C  413 1.371    O  416 1.046    C  410 0.094
   416  O   2.081    C  415 1.046    H  423 0.869    C  414 0.057
   417  H   0.996    C  409 0.968
   418  H   0.996    C  409 0.972
   419  H   0.997    C  411 0.963
   420  H   0.997    C  412 0.965
   421  H   0.998    C  413 0.966
   422  H   0.996    C  414 0.959
   423  H   0.899    O  416 0.869
   424  N   2.987    C  425 1.005    H  433 0.956    H  551 0.954
   425  C   3.985    N  424 1.005    C  426 0.992    C  428 0.958    H  434 0.958    O  427 0.053
   426  C   3.890    O  427 1.880    C  425 0.992    H  552 0.954
   427  O   2.016    C  426 1.880    C  425 0.053
   428  C   3.992    C  429 1.006    H  436 0.974    H  435 0.974    C  425 0.958
   429  C   3.994    C  428 1.006    H  437 0.966    H  438 0.957    C  430 0.948
   430  C   3.936    O  431 1.525    O  432 1.428    C  429 0.948
   431  O   1.812    C  430 1.525    O  432 0.211
   432  O   1.822    C  430 1.428    O  431 0.211    H  264 0.063
   433  H   0.973    N  424 0.956
   434  H   0.997    C  425 0.958
   435  H   0.998    C  428 0.974
   436  H   0.999    C  428 0.974
   437  H   0.998    C  429 0.966
   438  H   0.998    C  429 0.957
   439  N   2.978    C  440 0.995    H  447 0.958    H  553 0.957
   440  C   3.984    N  439 0.995    C  443 0.982    H  448 0.962    C  441 0.956
   441  C   3.947    O  442 1.589    N  456 1.307    C  440 0.956
   442  O   1.970    C  441 1.589    N  456 0.190
   443  C   3.994    C  444 1.012    C  440 0.982    H  449 0.973    H  450 0.966
   444  C   3.976    C  443 1.012    S  445 0.997    H  451 0.963    H  452 0.958
   445  S   2.096    C  446 1.002    C  444 0.997
   446  C   3.979    S  445 1.002    H  455 0.981    H  454 0.981    H  453 0.978
   447  H   0.974    N  439 0.958
   448  H   0.997    C  440 0.962
   449  H   0.997    C  443 0.973
   450  H   0.998    C  443 0.966
   451  H   0.996    C  444 0.963
   452  H   0.994    C  444 0.958
   453  H   0.998    C  446 0.978
   454  H   0.997    C  446 0.981
   455  H   0.996    C  446 0.981
   456  N   3.497    C  441 1.307    C  457 1.007    H  467 0.918    O  442 0.190
   457  C   3.966    N  456 1.007    C  458 0.962    C  460 0.951    H  468 0.929    O  459 0.059
   458  C   3.901    O  459 1.904    C  457 0.962    H  554 0.953
   459  O   2.048    C  458 1.904    C  457 0.059
   460  C   3.983    C  461 0.999    H  469 0.971    H  470 0.960    C  457 0.951
   461  C   3.987    C  463 1.467    C  462 1.371    C  460 0.999    C  466 0.104
   462  C   3.992    C  464 1.474    C  461 1.371    H  471 0.964    C  465 0.124
   463  C   3.990    C  461 1.467    C  465 1.396    H  472 0.968    C  464 0.104
   464  C   3.992    C  462 1.474    C  466 1.418    H  473 0.966    C  463 0.104
   465  C   3.990    C  466 1.468    C  463 1.396    H  474 0.972    C  462 0.124
   466  C   3.993    C  465 1.468    C  464 1.418    H  475 0.966    C  461 0.104
   467  H   0.953    N  456 0.918
   468  H   0.992    C  457 0.929
   469  H   0.994    C  460 0.971
   470  H   0.993    C  460 0.960
   471  H   0.998    C  462 0.964
   472  H   0.999    C  463 0.968
   473  H   0.998    C  464 0.966
   474  H   0.999    C  465 0.972
   475  H   0.998    C  466 0.966
   476  N   3.008    C  477 1.027    H  555 0.955    H  484 0.933
   477  C   3.985    N  476 1.027    C  478 0.977    H  485 0.953    C  480 0.949    O  479 0.056
   478  C   3.886    O  479 1.871    C  477 0.977    H  556 0.956
   479  O   2.009    C  478 1.871    C  477 0.056
   480  C   3.991    C  481 0.986    H  487 0.975    H  486 0.973    C  477 0.949
   481  C   3.992    C  483 1.011    C  482 1.009    C  480 0.986    H  488 0.955
   482  C   3.995    C  481 1.009    H  490 0.984    H  489 0.984    H  491 0.983
   483  C   3.995    C  481 1.011    H  492 0.981    H  494 0.978    H  493 0.971
   484  H   0.969    N  476 0.933
   485  H   0.998    C  477 0.953
   486  H   0.998    C  480 0.973
   487  H   0.999    C  480 0.975
   488  H   0.995    C  481 0.955
   489  H   0.997    C  482 0.984
   490  H   1.000    C  482 0.984
   491  H   0.998    C  482 0.983
   492  H   0.997    C  483 0.981
   493  H   0.998    C  483 0.971
   494  H   0.999    C  483 0.978
   495  N   3.009    C  496 1.027    H  557 0.955    H  503 0.946
   496  C   3.985    N  495 1.027    C  497 0.975    H  504 0.954    C  499 0.950    O  498 0.055
   497  C   3.882    O  498 1.866    C  496 0.975    H  558 0.954
   498  O   2.025    C  497 1.866    C  496 0.055
   499  C   3.989    C  500 0.987    H  506 0.974    H  505 0.973    C  496 0.950
   500  C   3.995    C  502 1.011    C  501 1.009    C  499 0.987    H  507 0.965
   501  C   3.993    C  500 1.009    H  509 0.985    H  510 0.983    H  508 0.983
   502  C   3.995    C  500 1.011    H  511 0.982    H  513 0.978    H  512 0.971
   503  H   0.969    N  495 0.946
   504  H   0.998    C  496 0.954
   505  H   0.997    C  499 0.973
   506  H   0.998    C  499 0.974
   507  H   0.998    C  500 0.965
   508  H   0.996    C  501 0.983
   509  H   0.998    C  501 0.985
   510  H   0.998    C  501 0.983
   511  H   0.997    C  502 0.982
   512  H   0.999    C  502 0.971
   513  H   0.999    C  502 0.978
   514  N   2.990    C  515 1.009    H  559 0.959    H  522 0.929
   515  C   3.989    N  514 1.009    C  516 1.002    C  518 0.962    H  523 0.945    O  517 0.051
   516  C   3.894    O  517 1.863    C  515 1.002    H  560 0.951
   517  O   2.003    C  516 1.863    C  515 0.051
   518  C   3.990    C  519 0.980    H  525 0.974    H  524 0.969    C  515 0.962
   519  C   3.992    C  520 1.011    C  521 1.009    C  518 0.980    H  526 0.963
   520  C   3.994    C  519 1.011    H  529 0.986    H  528 0.981    H  527 0.977
   521  C   3.994    C  519 1.009    H  531 0.986    H  530 0.982    H  532 0.981
   522  H   0.963    N  514 0.929
   523  H   0.999    C  515 0.945
   524  H   0.996    C  518 0.969
   525  H   0.999    C  518 0.974
   526  H   0.997    C  519 0.963
   527  H   0.997    C  520 0.977
   528  H   0.997    C  520 0.981
   529  H   0.999    C  520 0.986
   530  H   0.999    C  521 0.982
   531  H   1.000    C  521 0.986
   532  H   1.000    C  521 0.981
   533  H   0.968    N    1 0.949
   534  H   0.993    C    3 0.954
   535  H   0.974    N   20 0.963
   536  H   0.997    C  230 0.956
   537  H   0.963    N  271 0.952
   538  H   0.994    C  273 0.954
   539  H   0.967    N  288 0.953
   540  H   0.994    C  290 0.953
   541  H   0.965    N  312 0.952
   542  H   0.997    C  314 0.954
   543  H   0.966    N  331 0.952
   544  H   0.994    C  333 0.954
   545  H   0.968    N  351 0.956
   546  H   0.994    C  372 0.957
   547  H   0.972    N  384 0.959
   548  H   0.995    C  386 0.953
   549  H   0.966    N  403 0.938
   550  H   0.994    C  405 0.956
   551  H   0.963    N  424 0.954
   552  H   0.994    C  426 0.954
   553  H   0.965    N  439 0.957
   554  H   0.994    C  458 0.953
   555  H   0.968    N  476 0.955
   556  H   0.996    C  478 0.956
   557  H   0.968    N  495 0.955
   558  H   0.994    C  497 0.954
   559  H   0.973    N  514 0.959
   560  H   0.994    C  516 0.951
 
molecular dipole:
                 x           y           z       tot (Debye)
 q only:       -7.050     -31.294     -42.063
   full:       -8.420     -33.524     -39.055     132.565
molecular quadrupole (traceless):
                xx          xy          yy          xz          yz          zz
 q only:      624.102     222.305     625.414    -311.092   -2114.829   -1249.516
  q+dip:      612.916     108.372     392.747    -335.218   -1938.068   -1005.663
   full:      615.994     106.167     392.019    -333.487   -1941.687   -1008.014
speedup 10.50
cpu  time for grad   57.01 s
wall time for grad    5.43 s

SCC energy    :    -850.7249379
rep           :      10.6743790
ES            :       2.9714436
AES           :      -0.1423518
AXC           :       0.3196711
disp          :      -0.7126343
XB            :       0.0000000
fix           :       0.0000000
Gborn         :       0.0000000
Gsasa         :       0.0000000
Ghb           :       0.0000000
Gshift        :       0.0000000
Gsolv         :      -0.8825766     -553.83
Etot ala COSMO:    -850.7249379
grad norm     :       0.9029161
total E       :    -839.9730865
atomizationE  :     153.4785248    96309.23
(atE without considering molecular charge,
 total energy contains solvation terms)
H-L gap (eV)  :          1.4052

------------------------------------------------------------------------
 * finished run on 2019/02/16 at 08:10:03.915     
------------------------------------------------------------------------
 total:
 * wall-time:     0 d,  0 h,  0 min,  6.159 sec
 *  cpu-time:     0 d,  0 h,  1 min,  4.290 sec
 * ratio c/w:    10.438 speedup
 SCF:
 * wall-time:     0 d,  0 h,  0 min,  5.824 sec
 *  cpu-time:     0 d,  0 h,  1 min,  0.965 sec
 * ratio c/w:    10.468 speedup

