      -----------------------------------------------------------      
     |                   =====================                   |     
     |                           x T B                           |     
     |                   =====================                   |     
     |                         S. Grimme                         |     
     |          Mulliken Center for Theoretical Chemistry        |     
     |                    University of Bonn                     |     
     |                 Version 6.0.1 (SAW181210)                 |     
      -----------------------------------------------------------      

   This program is distributed in the hope that it will be useful,
   but WITHOUT ANY WARRANTY; without even the implied warranty of
   MERCHANTABILITY or FITNESS FOR A PARTICULAR PURPOSE.
   
   FOR NON-COMMERCIAL, ACADEMIA USE ONLY.
   
   Cite this work as:
   S. Grimme, C. Bannwarth, P. Shushkov, J. Comput. Theory Chem., 2017,
   13, 1989-2009.
   C. Bannwarth, S. Ehlert and S. Grimme., ChemRxiv, 2018, preprint.
   http://doi.org/10.26434/chemrxiv.7246238.v1
   
   for sTDA-xTB:
   S. Grimme and C. Bannwarth, J. Chem. Phys., 2016, 145, 054103.
   
   in the mass-spec context:
   V. Asgeirsson, C. Bauer and S. Grimme, Chem. Sci., 2017, 8, 4879.
   
   if GBSA is used:
   P. Shushkov, F. März and S. Grimme, unpublished.
   
   for ANC optimizer:
   S. Grimme, unpublished.
   Rational Function algorithm used in ANCopt:
   F. Eckert, P. Pulay, H.-J. Werner, J. Comput. Chem., 1997, 18, 1473.
   
   with help from (in alphabetical order)
   C. Bannwarth, F. Bohle, G. Brandenburg, E. Caldeweyher, M. Checinski,
   S. Dohm, S. Ehlert, S. Ehrlich, F. März, H. Neugebauer, J. Pisarek,
   P. Pracht, P. Shushkov, and S. Spicher.
   
 * started run on 2019/02/16 at 08:09:32.720     
========================================================================
 # omp threads = 12
========================================================================
number of atoms            : 462
number of electrons        : 1276
charge                     : -5
spin                       : .0
first test random number   : .4832

########################################################################
# WARNING! Please study the warnings concerning your input carefully
#  - Process number higher than OMP_NUM_THREADS, I hope you know what you are doing.
########################################################################

           ------------------------------------------------- 
          |                 G F N 2 - x T B                 |
          | Geometry, Frequencies, Noncovalent interactions |
          |            JCTC 2018 parametrisation            |
           ------------------------------------------------- 
 
      method parameters     
 k(s)        :  1.8500
 k(p)        :  2.2300
 k(d)        :  2.2300
 k(f)        :  2.0000
 kEN (H0ij)  : -2.0000
 D4 a1       :  0.5200
 D4 a2       :  5.0000
 D4 s6       :  1.0000
 D4 s8       :  2.7000
 D4 s9       :  5.0000
 alphaj      :  2.0000

 Solvent             : h2o
 Using internal parameter file: .param_gbsa2_h2o
 Gsolv ref. state (COSMO-RS): gsolv [1 M gas/solution]
 temperature (mdtemp)       :    298.150000000000     
 dielectric constant        :    80.2000000000000     
 rho                        :    1.00000000000000     
 mass                       :    18.0000000000000     
 surface tension            :    15.5689454083859     
 probe radius               :   0.975313790000000     
 vdW radii scaling          :    1.00000000000000     
 Gshift (Eh)                :   1.857443126794793E-003
 c1                         :    1.55243817000000     
 soset                      :   0.130326360000000     
 HB correction              :  T

            Z     q(EN)     CN     RAES       Cart. coordinates
     1  N   5.0   -0.23    3.26    1.97     6.42453    32.52178     6.10435
     2  C   4.0    0.02    4.32    4.23     5.27002    32.59561     3.68957
     3  C   4.0    0.14    3.43    3.09     6.95975    31.28407     1.73581
     4  O   6.0   -0.32    1.26    1.80     6.06152    29.87039     0.11482
     5  C   4.0   -0.05    4.35    4.30     4.86021    35.37007     2.85807
     6  C   4.0   -0.03    4.20    4.00     2.72108    36.63658     4.38049
     7  C   4.0   -0.10    4.18    3.96     2.56288    39.35721     3.58762
     8  C   4.0   -0.09    4.15    3.91     0.11585    35.60461     3.80455
     9  H   1.0    0.06    1.03    1.43     6.82542    34.15568     7.01845
    10  H   1.0    0.04    1.05    1.44     3.47897    31.55286     3.71230
    11  H   1.0    0.03    1.03    1.43     6.63021    36.38082     3.14345
    12  H   1.0    0.04    1.03    1.43     4.37585    35.37549     0.85554
    13  H   1.0    0.02    1.06    1.44     3.09418    36.46927     6.39266
    14  H   1.0    0.01    1.00    1.43     1.11346    40.34007     4.66551
    15  H   1.0    0.02    1.00    1.43     4.34249    40.34597     3.91537
    16  H   1.0    0.03    1.00    1.43     2.10820    39.50808     1.58875
    17  H   1.0    0.02    1.01    1.43    -1.26720    36.62870     4.92743
    18  H   1.0    0.03    1.00    1.43    -0.35588    35.82779     1.82057
    19  H   1.0    0.03    1.00    1.43    -0.08076    33.61113     4.28097
    20  N   5.0   -0.16    3.46    2.05     9.40011    31.84216     1.78350
    21  C   4.0    0.03    4.35    4.29    11.10708    30.75534    -0.11416
    22  C   4.0    0.09    3.28    3.05    11.30735    27.93082     0.18699
    23  O   6.0   -0.30    1.13    1.80    11.24680    26.35054    -1.59760
    24  C   4.0   -0.05    4.38    4.35    13.72494    31.85766     0.15139
    25  C   4.0    0.15    3.25    3.04    15.60892    31.10892    -1.84831
    26  O   6.0   -0.30    1.20    1.80    17.61420    30.06141    -1.29887
    27  N   5.0   -0.19    3.25    1.97    14.83772    31.57269    -4.09288
    28  H   1.0    0.06    1.06    1.44    10.11366    33.08325     3.06118
    29  H   1.0    0.05    1.05    1.44    10.26695    31.10058    -1.97983
    30  H   1.0    0.03    1.03    1.43    13.54953    33.92176     0.14511
    31  H   1.0    0.04    1.03    1.43    14.48129    31.32009     1.99872
    32  H   1.0    0.09    1.03    1.43    15.72888    30.84485    -5.63871
    33  H   1.0    0.07    1.05    1.44    13.18127    32.48083    -4.34734
    34  N   5.0   -0.20    3.23    1.96     6.90717    24.20814     2.52274
    35  C   4.0    0.03    4.20    4.00     4.45489    23.19411     1.76678
    36  C   4.0    0.15    3.36    3.07     4.37174    22.89405    -1.14120
    37  O   6.0   -0.32    1.23    1.80     3.49901    20.95859    -2.10492
    38  C   4.0   -0.08    4.07    3.75     2.37794    24.82757     2.95915
    39  H   1.0    0.08    1.03    1.43     6.88042    25.87737     3.47082
    40  H   1.0    0.04    1.05    1.44     4.31757    21.24471     2.46943
    41  H   1.0    0.05    1.00    1.43     0.56752    23.88542     2.76172
    42  H   1.0    0.03    1.00    1.43     2.82122    25.08559     4.94499
    43  H   1.0    0.05    1.00    1.43     2.32790    26.66594     2.04753
    44  N   5.0   -0.14    3.48    2.06     5.34865    24.84549    -2.55174
    45  C   4.0    0.04    4.46    4.47     5.43081    24.72571    -5.26928
    46  C   4.0    0.16    3.45    3.09     7.02728    22.63548    -6.21061
    47  O   6.0   -0.29    1.26    1.80     6.39774    21.28022    -7.99290
    48  C   4.0   -0.04    4.43    4.43     6.10903    27.20988    -6.39936
    49  C   4.0   -0.02    4.18    3.95     4.13299    29.33603    -5.88205
    50  C   4.0   -0.07    4.15    3.91     5.53569    31.66303    -6.74285
    51  C   4.0   -0.07    4.09    3.78     1.73611    28.84903    -7.44557
    52  H   1.0    0.11    1.08    1.44     5.97914    26.40334    -1.63509
    53  H   1.0    0.06    1.07    1.44     3.52252    24.20650    -5.93894
    54  H   1.0    0.05    1.03    1.43     7.95128    27.76496    -5.64792
    55  H   1.0    0.05    1.04    1.43     6.27407    26.94493    -8.43589
    56  H   1.0    0.05    1.05    1.44     3.69121    29.42497    -3.87491
    57  H   1.0    0.04    1.00    1.43     4.37786    33.35132    -6.55070
    58  H   1.0    0.04    1.00    1.43     7.24236    31.91757    -5.63577
    59  H   1.0    0.04    1.01    1.43     6.04882    31.46784    -8.72276
    60  H   1.0    0.04    1.00    1.43     0.47377    30.46857    -7.37142
    61  H   1.0    0.05    1.00    1.43     2.22062    28.51764    -9.41599
    62  H   1.0    0.04    1.00    1.43     0.72370    27.19908    -6.77169
    63  N   5.0   -0.14    3.45    2.05     9.30789    22.29554    -5.03579
    64  C   4.0    0.03    4.39    4.36    11.04353    20.19202    -5.68766
    65  C   4.0    0.15    3.42    3.09     9.93186    17.61625    -5.12945
    66  O   6.0   -0.32    1.30    1.80    10.16360    15.92746    -6.73696
    67  C   4.0   -0.04    4.28    4.16    13.66753    20.56255    -4.53071
    68  C   4.0   -0.03    4.20    4.01    14.96354    22.91875    -5.55301
    69  C   4.0    0.25    3.13    3.03    17.62721    23.14591    -4.55966
    70  O   6.0   -0.31    1.20    1.80    18.24736    21.82332    -2.70381
    71  O   6.0   -0.30    1.16    1.80    19.08726    24.74628    -5.57967
    72  H   1.0    0.10    1.08    1.44     9.80489    23.39477    -3.55431
    73  H   1.0    0.06    1.06    1.44    11.24488    20.23638    -7.75942
    74  H   1.0    0.05    1.03    1.43    13.49827    20.70804    -2.47715
    75  H   1.0    0.05    1.03    1.43    14.80808    18.89035    -4.91924
    76  H   1.0    0.05    1.02    1.43    14.97114    22.90759    -7.61794
    77  H   1.0    0.07    1.03    1.43    13.93991    24.59329    -4.90585
    78  N   5.0   -0.14    3.47    2.06     8.58372    17.32060    -3.08888
    79  C   4.0    0.03    4.37    4.32     7.27482    14.89846    -2.54753
    80  C   4.0    0.15    3.45    3.10     5.27680    14.43113    -4.57408
    81  O   6.0   -0.31    1.26    1.80     4.96180    12.29586    -5.53975
    82  C   4.0   -0.06    4.29    4.18     6.13959    15.04335     0.11566
    83  C   4.0   -0.02    4.13    3.87     4.28794    12.78273     0.85197
    84  C   4.0   -0.08    4.09    3.78     5.93509    10.42818     1.13381
    85  C   4.0   -0.08    4.05    3.72     2.62629    13.44596     3.10763
    86  H   1.0    0.08    1.06    1.44     8.66207    18.59076    -1.65169
    87  H   1.0    0.05    1.05    1.44     8.64843    13.36128    -2.70415
    88  H   1.0    0.03    1.02    1.43     7.68887    15.14033     1.46541
    89  H   1.0    0.05    1.03    1.43     5.07068    16.80798     0.21068
    90  H   1.0    0.05    1.06    1.44     3.04644    12.48982    -0.77729
    91  H   1.0    0.04    1.00    1.43     4.80181     8.77387     1.55258
    92  H   1.0    0.04    1.00    1.43     6.92764    10.07903    -0.62490
    93  H   1.0    0.03    1.00    1.43     7.30752    10.69655     2.63711
    94  H   1.0    0.04    1.00    1.43     1.24673    11.95414     3.38235
    95  H   1.0    0.03    1.00    1.43     3.75134    13.61696     4.81180
    96  H   1.0    0.04    1.00    1.43     1.65105    15.21254     2.73053
    97  N   5.0   -0.13    3.49    2.07     3.73655    16.29317    -5.30928
    98  C   4.0    0.04    4.37    4.33     1.75829    15.92952    -7.16264
    99  C   4.0    0.16    3.45    3.09     3.00232    15.14613    -9.68334
   100  O   6.0   -0.32    1.29    1.80     1.96855    13.49275   -10.97586
   101  C   4.0   -0.05    4.24    4.07     0.16119    18.38634    -7.25439
   102  C   4.0   -0.04    4.14    3.88    -2.13644    18.23069    -9.06813
   103  C   4.0   -0.05    4.18    3.96    -3.29310    20.92475    -9.20257
   104  C   4.0   -0.02    4.11    3.83    -5.47667    21.20954   -11.04426
   105  N   5.0   -0.10    4.09    3.11    -7.75898    20.00667    -9.92954
   106  H   1.0    0.11    1.09    1.44     3.86834    18.03322    -4.50064
   107  H   1.0    0.05    1.06    1.44     0.58491    14.31774    -6.61588
   108  H   1.0    0.05    1.03    1.43    -0.49434    18.75185    -5.34102
   109  H   1.0    0.06    1.03    1.43     1.39505    19.92171    -7.86540
   110  H   1.0    0.06    1.02    1.43    -1.50474    17.66174   -10.94377
   111  H   1.0    0.06    1.03    1.43    -3.48771    16.85396    -8.37842
   112  H   1.0    0.04    1.03    1.43    -3.92622    21.47330    -7.32261
   113  H   1.0    0.05    1.03    1.43    -1.78914    22.21064    -9.78052
   114  H   1.0    0.05    1.02    1.43    -5.86668    23.21021   -11.35404
   115  H   1.0    0.06    1.02    1.43    -5.07462    20.32493   -12.85624
   116  H   1.0    0.09    1.04    1.43    -9.39683    20.49562   -10.85909
   117  H   1.0    0.11    1.16    1.46    -7.48321    17.97852   -10.02719
   118  H   1.0    0.06    1.03    1.43    -7.94387    20.51872    -8.07746
   119  N   5.0   -0.13    3.51    2.08     5.10533    16.31596   -10.49653
   120  C   4.0    0.05    4.51    4.54     6.27175    15.60749   -12.81508
   121  C   4.0    0.16    3.54    3.13     7.32210    12.92771   -12.61038
   122  O   6.0   -0.30    1.27    1.80     7.23269    11.59679   -14.50836
   123  C   4.0   -0.02    4.38    4.35     8.51809    17.19382   -13.34344
   124  C   4.0    0.25    3.15    3.03     7.71756    19.79540   -14.36666
   125  O   6.0   -0.31    1.23    1.80     5.49343    20.14751   -15.00696
   126  O   6.0   -0.34    1.40    1.80     9.53723    21.32962   -14.43949
   127  H   1.0    0.11    1.09    1.44     5.69271    17.91284    -9.60268
   128  H   1.0    0.07    1.06    1.44     4.91934    15.64674   -14.38356
   129  H   1.0    0.06    1.03    1.43     9.64959    17.45172   -11.63630
   130  H   1.0    0.05    1.04    1.43     9.70795    16.30784   -14.78113
   131  N   5.0   -0.14    3.50    2.08     8.39536    12.14885   -10.46938
   132  C   4.0    0.05    4.36    4.31     9.50970     9.66683   -10.32073
   133  C   4.0    0.16    3.41    3.08     7.53065     7.58083   -10.77477
   134  O   6.0   -0.28    1.24    1.80     8.18007     5.51941   -11.56297
   135  C   4.0   -0.06    4.12    3.83    10.88854     9.32264    -7.86011
   136  H   1.0    0.11    1.09    1.44     8.59927    13.32578    -8.97303
   137  H   1.0    0.07    1.06    1.44    10.86038     9.46014   -11.88678
   138  H   1.0    0.06    1.01    1.43    11.74057     7.45711    -7.79404
   139  H   1.0    0.06    1.00    1.43    12.38265    10.72097    -7.69313
   140  H   1.0    0.05    1.00    1.43     9.58351     9.54217    -6.28430
   141  N   5.0   -0.13    3.55    2.12     5.11884     8.12718   -10.23573
   142  C   4.0    0.03    4.49    4.52     3.06750     6.21155   -10.58691
   143  C   4.0    0.17    3.41    3.08     2.07598     6.50726   -13.25297
   144  O   6.0   -0.27    1.24    1.80     2.14569     4.84136   -14.83114
   145  C   4.0   -0.04    4.27    4.14     1.23038     6.48314    -8.41960
   146  C   4.0   -0.03    4.30    4.20     2.77522     6.37975    -6.01214
   147  C   4.0    0.15    3.21    3.04     1.40816     5.62726    -3.62205
   148  O   6.0   -0.29    1.23    1.80     2.44377     4.23459    -2.06472
   149  N   5.0   -0.18    3.19    1.95    -0.86001     6.68297    -3.19657
   150  H   1.0    0.10    1.07    1.44     4.63868     9.84469    -9.56837
   151  H   1.0    0.07    1.07    1.44     4.02733     4.37403   -10.52341
   152  H   1.0    0.06    1.04    1.43     0.17474     8.24137    -8.57059
   153  H   1.0    0.05    1.03    1.43    -0.10601     4.91015    -8.51358
   154  H   1.0    0.05    1.04    1.43     4.34879     5.06511    -6.24589
   155  H   1.0    0.06    1.04    1.43     3.60090     8.24100    -5.64777
   156  H   1.0    0.09    1.03    1.43    -1.72440     7.66676    -4.57576
   157  H   1.0    0.13    1.05    1.44    -1.90622     5.84970    -1.81221
   158  N   5.0   -0.12    3.51    2.08     1.18659     8.82520   -13.61423
   159  C   4.0    0.04    4.27    4.14     0.48341    10.00505   -15.99660
   160  C   4.0    0.16    3.38    3.07    -2.39146    10.66072   -15.99328
   161  O   6.0   -0.31    1.33    1.80    -3.89440     9.56620   -17.37951
   162  C   4.0   -0.04    4.17    3.94     1.25274     8.42738   -18.27931
   163  H   1.0    0.11    1.12    1.45     1.42568    10.09854   -12.21202
   164  H   1.0    0.05    1.05    1.44     1.48547    11.82555   -16.06051
   165  H   1.0    0.04    1.00    1.43     0.84022     9.49163   -19.98961
   166  H   1.0    0.08    1.04    1.43     3.24815     8.03320   -18.17523
   167  H   1.0    0.08    1.01    1.43     0.21127     6.66460   -18.33303
   168  N   5.0   -0.13    3.29    1.98    -3.13576    12.58207   -14.48086
   169  C   4.0    0.03    4.24    4.07    -5.70507    13.49648   -14.81458
   170  C   4.0    0.23    3.14    3.03    -6.90807    15.37006   -12.94177
   171  O   6.0   -0.32    1.24    1.80    -8.39700    16.90881   -13.91397
   172  O   6.0   -0.33    1.35    1.80    -6.47036    15.25260   -10.62379
   173  H   1.0    0.09    1.06    1.44    -1.87181    13.53937   -13.42598
   174  H   1.0    0.05    1.03    1.43    -5.86975    14.37184   -16.69055
   175  H   1.0    0.07    1.03    1.43    -6.92553    11.81858   -14.85612
   176  O   6.0   -0.32    1.97    1.82    14.08681    21.61786   -12.60405
   177  H   1.0    0.12    0.97    1.43    15.01910    21.82100   -14.15137
   178  H   1.0    0.16    1.05    1.44    12.35936    21.20038   -13.17558
   179  O   6.0   -0.29    1.93    1.82     2.84872    23.26323   -11.52802
   180  H   1.0    0.16    1.01    1.43     3.75311    22.25793   -12.75376
   181  H   1.0    0.14    0.98    1.43     1.68392    24.30464   -12.47099
   182  O   6.0   -0.30    1.91    1.82    15.70989    14.53716    -7.75473
   183  H   1.0    0.12    0.96    1.43    16.54985    15.83945    -8.74771
   184  H   1.0    0.14    0.98    1.43    13.93434    14.95833    -7.72444
   185  O   6.0   -0.31    1.92    1.82     7.40356    13.55037   -19.99607
   186  H   1.0    0.15    0.98    1.43     7.48007    12.83413   -18.31948
   187  H   1.0    0.12    0.97    1.43     6.15093    12.56077   -20.86377
   188  O   6.0   -0.31    1.98    1.82     6.18943     6.58842   -19.80394
   189  H   1.0    0.18    1.04    1.44     7.21565     5.72237   -18.57809
   190  H   1.0    0.11    0.97    1.43     7.02141     6.29484   -21.39812
   191  O   6.0   -0.32    1.96    1.82    -2.73396    10.93538    -8.41967
   192  H   1.0    0.14    0.98    1.43    -1.67214    12.10514    -9.32231
   193  H   1.0    0.16    1.05    1.44    -3.76677    10.13187    -9.70419
   194  O   6.0   -0.33    1.98    1.82     5.98433    31.57319   -14.66148
   195  H   1.0    0.15    1.03    1.43     5.22650    29.98815   -15.18720
   196  H   1.0    0.13    0.97    1.43     4.60504    32.73231   -14.48417
   197  O   6.0   -0.31    1.91    1.82   -14.53716    15.70989    -7.75473
   198  H   1.0    0.12    0.96    1.43   -15.83945    16.54985    -8.74771
   199  H   1.0    0.11    0.97    1.43   -14.95833    13.93434    -7.72444
   200  O   6.0   -0.32    2.02    1.83     3.85159    27.02996   -15.62967
   201  H   1.0    0.17    1.05    1.44     2.04109    27.21023   -15.20903
   202  H   1.0    0.14    0.97    1.43     4.02637    25.37384   -16.35182
   203  O   6.0   -0.32    1.92    1.82   -11.71838    27.05598   -14.46334
   204  H   1.0    0.13    0.97    1.43   -11.01352    26.12082   -15.85361
   205  H   1.0    0.15    1.00    1.43   -12.06671    25.78381   -13.19647
   206  O   6.0   -0.29    1.94    1.82    -6.58842     6.18943   -19.80394
   207  H   1.0    0.18    1.04    1.44    -5.72237     7.21565   -18.57809
   208  H   1.0    0.11    0.97    1.43    -6.29484     7.02141   -21.39812
   209  O   6.0   -0.32    1.93    1.82    -2.16832    35.79421   -10.55336
   210  H   1.0    0.13    0.97    1.43    -2.02413    34.79938   -12.06706
   211  H   1.0    0.11    0.97    1.43    -3.91252    36.33795   -10.38085
   212  O   6.0   -0.31    1.92    1.82   -11.49233    21.36291   -15.87840
   213  H   1.0    0.16    1.01    1.43   -11.87996    21.79251   -14.12159
   214  H   1.0    0.15    0.98    1.43   -10.47793    19.85465   -15.76824
   215  N   5.0   -0.24    3.17    1.95    12.00964    37.67323   -17.95688
   216  C   4.0    0.02    4.17    3.93    11.53537    37.60308   -15.23456
   217  C   4.0    0.05    3.19    3.03    12.91383    39.69102   -13.77568
   218  O   6.0   -0.33    1.13    1.80    11.90401    40.89769   -12.02166
   219  C   4.0   -0.05    4.24    4.07    12.26251    34.99949   -14.16043
   220  C   4.0   -0.05    4.15    3.90    11.43769    34.50579   -11.36127
   221  C   4.0   -0.02    4.20    4.00    12.19532    31.77881   -10.55483
   222  N   5.0   -0.14    3.45    2.05    10.33896    30.11706   -11.88063
   223  C   4.0    0.10    3.34    3.06    10.66440    27.64712   -12.05057
   224  N   5.0   -0.19    3.31    1.99    12.87847    26.74566   -11.34246
   225  N   5.0   -0.18    3.26    1.97     8.93830    26.19783   -13.13096
   226  H   1.0    0.06    1.02    1.43    12.59285    36.06891   -18.84234
   227  H   1.0    0.04    1.05    1.44     9.50760    37.93300   -14.91179
   228  H   1.0    0.04    1.03    1.43    11.33075    33.57338   -15.31883
   229  H   1.0    0.03    1.02    1.43    14.30154    34.75415   -14.31317
   230  H   1.0    0.04    1.02    1.43    12.34894    35.88949   -10.14601
   231  H   1.0    0.04    1.02    1.43     9.40439    34.74265   -11.18418
   232  H   1.0    0.03    1.03    1.43    14.09644    31.39628   -11.24131
   233  H   1.0    0.04    1.02    1.43    12.03246    31.52011    -8.52532
   234  H   1.0    0.10    1.10    1.44     8.71694    30.90710   -12.54160
   235  H   1.0    0.08    1.05    1.44    14.10096    27.77524   -10.31602
   236  H   1.0    0.10    1.07    1.44    13.20655    24.85103   -11.48378
   237  H   1.0    0.11    1.05    1.44     7.23735    26.90457   -13.61946
   238  H   1.0    0.13    1.10    1.44     9.18567    24.30439   -13.42764
   239  N   5.0   -0.22    3.21    1.96     9.55538    45.99323   -14.60403
   240  C   4.0    0.01    4.33    4.25     7.27057    46.11469   -12.95269
   241  C   4.0    0.13    3.47    3.10     8.06928    46.92197   -10.32286
   242  O   6.0   -0.33    1.23    1.80     6.99116    48.59166    -9.05143
   243  C   4.0   -0.05    4.39    4.36     5.89736    43.61984   -13.08243
   244  C   4.0   -0.05    4.12    3.85     3.82980    43.58578   -11.14630
   245  S   6.0   -0.06    2.54    3.10     2.60825    40.48210   -10.76450
   246  C   4.0   -0.07    3.88    3.43     5.00489    39.00369    -8.77059
   247  H   1.0    0.07    1.02    1.43     9.77149    44.39431   -15.63928
   248  H   1.0    0.02    1.05    1.44     6.05319    47.62986   -13.69478
   249  H   1.0    0.02    1.03    1.43     5.15605    43.35717   -14.98714
   250  H   1.0    0.05    1.05    1.44     7.26718    42.11925   -12.68942
   251  H   1.0    0.05    1.09    1.44     4.50636    44.22961    -9.30527
   252  H   1.0    0.02    1.08    1.44     2.25844    44.79969   -11.69572
   253  H   1.0    0.04    1.05    1.44     4.42994    37.04904    -8.60954
   254  H   1.0    0.05    1.03    1.43     6.85640    39.16045    -9.63967
   255  H   1.0    0.04    1.04    1.43     5.00528    39.91483    -6.93271
   256  N   5.0   -0.15    3.47    2.06     9.94744    45.54966    -9.28255
   257  C   4.0    0.04    4.36    4.31    10.72294    46.07495    -6.79643
   258  C   4.0    0.07    3.24    3.04    11.86036    48.74221    -6.53016
   259  O   6.0   -0.34    1.11    1.80    11.61882    50.00244    -4.59901
   260  C   4.0   -0.05    4.27    4.14    12.64690    44.14345    -5.70920
   261  C   4.0   -0.02    3.50    3.11    11.32175    41.71954    -4.85360
   262  C   4.0   -0.05    3.52    3.12     9.25152    41.75136    -3.20090
   263  C   4.0   -0.04    3.50    3.12    11.89916    39.38177    -5.75340
   264  C   4.0   -0.06    3.41    3.08     7.92410    39.62726    -2.56559
   265  C   4.0   -0.05    3.40    3.08    10.71884    37.14951    -4.92218
   266  C   4.0   -0.05    3.38    3.07     8.57867    37.31409    -3.47303
   267  H   1.0    0.10    1.08    1.44    10.80432    44.15391   -10.28825
   268  H   1.0    0.05    1.06    1.44     9.03876    46.10402    -5.57594
   269  H   1.0    0.03    1.03    1.43    14.04872    43.73521    -7.15692
   270  H   1.0    0.03    1.03    1.43    13.55701    45.02002    -4.08467
   271  H   1.0    0.04    1.03    1.43     8.68266    43.54402    -2.39219
   272  H   1.0    0.05    1.03    1.43    13.45735    39.19054    -7.06288
   273  H   1.0    0.03    1.03    1.43     6.28793    39.82984    -1.35715
   274  H   1.0    0.04    1.03    1.43    11.31425    35.38184    -5.72506
   275  H   1.0    0.04    1.03    1.43     7.51675    35.65679    -2.94549
   276  N   5.0   -0.23    3.19    1.95   -10.33331    32.35433    -9.71054
   277  C   4.0    0.02    4.28    4.16    -8.30012    30.42585    -9.76601
   278  C   4.0    0.14    3.46    3.10    -6.95905    30.31244    -7.18613
   279  O   6.0   -0.32    1.27    1.80    -6.37320    28.25622    -6.25650
   280  C   4.0   -0.04    4.23    4.07    -6.25715    31.18437   -11.75616
   281  C   4.0   -0.03    4.19    3.99    -4.58062    28.91226   -12.26478
   282  C   4.0    0.24    3.08    3.02    -2.36604    29.15475   -14.16637
   283  O   6.0   -0.32    1.17    1.80    -2.17158    31.13793   -15.38418
   284  O   6.0   -0.33    1.28    1.80    -0.90907    27.26850   -14.31742
   285  H   1.0    0.06    1.02    1.43   -10.31962    33.72407   -11.05083
   286  H   1.0    0.05    1.04    1.44    -9.10131    28.57288   -10.18982
   287  H   1.0    0.04    1.02    1.43    -7.18119    31.79546   -13.49311
   288  H   1.0    0.05    1.04    1.43    -5.14346    32.72481   -10.99711
   289  H   1.0    0.05    1.03    1.43    -3.73374    28.24671   -10.49888
   290  H   1.0    0.05    1.03    1.43    -5.73248    27.34925   -12.98410
   291  N   5.0   -0.15    3.49    2.07    -6.42453    32.52178    -6.10435
   292  C   4.0    0.03    4.35    4.29    -5.27002    32.59561    -3.68957
   293  C   4.0    0.07    3.26    3.04    -6.95975    31.28407    -1.73581
   294  O   6.0   -0.31    1.11    1.80    -6.06152    29.87039    -0.11482
   295  C   4.0   -0.06    4.35    4.28    -4.86021    35.37007    -2.85807
   296  C   4.0   -0.03    4.20    4.00    -2.72108    36.63658    -4.38049
   297  C   4.0   -0.09    4.18    3.96    -2.56288    39.35721    -3.58762
   298  C   4.0   -0.08    4.15    3.91    -0.11585    35.60461    -3.80455
   299  H   1.0    0.07    1.07    1.44    -6.82542    34.15568    -7.01845
   300  H   1.0    0.05    1.05    1.44    -3.47897    31.55286    -3.71230
   301  H   1.0    0.02    1.03    1.43    -6.63021    36.38082    -3.14345
   302  H   1.0    0.03    1.03    1.43    -4.37585    35.37549    -0.85554
   303  H   1.0    0.05    1.06    1.44    -3.09418    36.46927    -6.39266
   304  H   1.0    0.03    1.00    1.43    -1.11346    40.34007    -4.66551
   305  H   1.0    0.02    1.00    1.43    -4.34249    40.34597    -3.91537
   306  H   1.0    0.02    1.00    1.43    -2.10820    39.50808    -1.58875
   307  H   1.0    0.04    1.01    1.43     1.26720    36.62870    -4.92743
   308  H   1.0    0.03    1.00    1.43     0.35588    35.82779    -1.82057
   309  H   1.0    0.04    1.00    1.43     0.08076    33.61113    -4.28097
   310  N   5.0   -0.21    3.18    1.95   -11.40474    27.05645    -2.56604
   311  C   4.0    0.02    4.29    4.17   -11.48052    24.32917    -2.98739
   312  C   4.0    0.14    3.44    3.09    -9.09641    22.99005    -2.10260
   313  O   6.0   -0.32    1.27    1.80    -9.09548    20.85062    -1.20061
   314  C   4.0   -0.04    4.28    4.16   -11.75557    23.43208    -5.76358
   315  C   4.0   -0.04    4.16    3.93   -14.30572    24.06924    -6.91371
   316  C   4.0    0.24    3.09    3.02   -14.46850    23.44579    -9.78470
   317  O   6.0   -0.33    1.28    1.80   -12.46917    22.77517   -10.89169
   318  O   6.0   -0.32    1.16    1.80   -16.61443    23.71195   -10.72771
   319  H   1.0    0.08    1.02    1.43   -11.60053    28.19905    -4.10099
   320  H   1.0    0.03    1.05    1.44   -13.04028    23.53788    -1.86403
   321  H   1.0    0.06    1.03    1.43   -10.26128    24.31554    -6.88161
   322  H   1.0    0.05    1.04    1.43   -11.49741    21.38837    -5.74943
   323  H   1.0    0.03    1.02    1.43   -15.81362    23.05546    -5.94059
   324  H   1.0    0.03    1.03    1.43   -14.68014    26.09179    -6.73295
   325  N   5.0   -0.14    3.47    2.06    -6.90717    24.20814    -2.52274
   326  C   4.0    0.04    4.21    4.03    -4.45489    23.19411    -1.76678
   327  C   4.0    0.08    3.18    3.03    -4.37174    22.89405     1.14120
   328  O   6.0   -0.31    1.11    1.80    -3.49901    20.95859     2.10492
   329  C   4.0   -0.07    4.07    3.75    -2.37794    24.82757    -2.95915
   330  H   1.0    0.11    1.09    1.44    -6.88042    25.87737    -3.47082
   331  H   1.0    0.05    1.05    1.44    -4.31757    21.24471    -2.46943
   332  H   1.0    0.05    1.00    1.43    -0.56752    23.88542    -2.76172
   333  H   1.0    0.05    1.00    1.43    -2.82122    25.08559    -4.94499
   334  H   1.0    0.06    1.00    1.43    -2.32790    26.66594    -2.04753
   335  N   5.0   -0.21    3.19    1.95    -8.58372    17.32060     3.08888
   336  C   4.0    0.03    4.18    3.95    -7.27482    14.89846     2.54753
   337  C   4.0    0.07    3.21    3.04    -5.27680    14.43113     4.57408
   338  O   6.0   -0.33    1.11    1.80    -4.96180    12.29586     5.53975
   339  C   4.0   -0.04    4.29    4.17    -6.13959    15.04335    -0.11566
   340  C   4.0   -0.02    4.13    3.87    -4.28794    12.78273    -0.85197
   341  C   4.0   -0.07    4.09    3.78    -5.93509    10.42818    -1.13381
   342  C   4.0   -0.07    4.06    3.74    -2.62629    13.44596    -3.10763
   343  H   1.0    0.11    1.05    1.44    -8.66207    18.59076     1.65169
   344  H   1.0    0.04    1.05    1.44    -8.64843    13.36128     2.70415
   345  H   1.0    0.04    1.02    1.43    -7.68887    15.14033    -1.46541
   346  H   1.0    0.06    1.03    1.43    -5.07068    16.80798    -0.21068
   347  H   1.0    0.05    1.06    1.44    -3.04644    12.48982     0.77729
   348  H   1.0    0.05    1.00    1.43    -4.80181     8.77387    -1.55258
   349  H   1.0    0.04    1.00    1.43    -6.92764    10.07903     0.62490
   350  H   1.0    0.04    1.00    1.43    -7.30752    10.69655    -2.63711
   351  H   1.0    0.05    1.00    1.43    -1.24673    11.95414    -3.38235
   352  H   1.0    0.05    1.00    1.43    -3.75134    13.61696    -4.81180
   353  H   1.0    0.04    1.00    1.43    -1.65105    15.21254    -2.73053
   354  N   5.0   -0.23    3.25    1.97    -5.11884     8.12718    10.23573
   355  C   4.0    0.02    4.25    4.10    -3.06750     6.21155    10.58691
   356  C   4.0    0.06    3.19    3.03    -2.07598     6.50726    13.25297
   357  O   6.0   -0.35    1.12    1.80    -2.14569     4.84136    14.83114
   358  C   4.0   -0.06    4.26    4.11    -1.23038     6.48314     8.41960
   359  C   4.0   -0.04    4.31    4.21    -2.77522     6.37975     6.01214
   360  C   4.0    0.14    3.21    3.04    -1.40816     5.62726     3.62205
   361  O   6.0   -0.27    1.23    1.80    -2.44377     4.23459     2.06472
   362  N   5.0   -0.19    3.18    1.95     0.86001     6.68297     3.19657
   363  H   1.0    0.09    1.02    1.43    -4.63868     9.84469     9.56837
   364  H   1.0    0.03    1.06    1.44    -4.02733     4.37403    10.52341
   365  H   1.0    0.03    1.03    1.43    -0.17474     8.24137     8.57059
   366  H   1.0    0.03    1.03    1.43     0.10601     4.91015     8.51358
   367  H   1.0    0.04    1.04    1.43    -4.34879     5.06511     6.24589
   368  H   1.0    0.06    1.04    1.43    -3.60090     8.24100     5.64777
   369  H   1.0    0.07    1.03    1.43     1.72440     7.66676     4.57576
   370  H   1.0    0.11    1.04    1.43     1.90622     5.84970     1.81221
   371  N   5.0   -0.24    3.29    1.98     8.12718    -5.11884   -10.23573
   372  C   4.0    0.02    4.39    4.36     6.21155    -3.06750   -10.58691
   373  C   4.0    0.15    3.40    3.08     6.50726    -2.07598   -13.25297
   374  O   6.0   -0.31    1.24    1.80     4.84136    -2.14569   -14.83114
   375  C   4.0   -0.05    4.27    4.14     6.48314    -1.23038    -8.41960
   376  C   4.0   -0.04    4.31    4.21     6.37975    -2.77522    -6.01214
   377  C   4.0    0.14    3.21    3.04     5.62726    -1.40816    -3.62205
   378  O   6.0   -0.31    1.20    1.80     4.23459    -2.44377    -2.06472
   379  N   5.0   -0.19    3.18    1.95     6.68297     0.86001    -3.19657
   380  H   1.0    0.06    1.02    1.43     9.84469    -4.63868    -9.56837
   381  H   1.0    0.04    1.06    1.44     4.37403    -4.02733   -10.52341
   382  H   1.0    0.04    1.03    1.43     8.24137    -0.17474    -8.57059
   383  H   1.0    0.05    1.03    1.43     4.91015     0.10601    -8.51358
   384  H   1.0    0.04    1.04    1.43     5.06511    -4.34879    -6.24589
   385  H   1.0    0.02    1.03    1.43     8.24100    -3.60090    -5.64777
   386  H   1.0    0.08    1.03    1.43     7.66676     1.72440    -4.57576
   387  H   1.0    0.11    1.04    1.43     5.84970     1.90622    -1.81221
   388  N   5.0   -0.14    3.49    2.07     8.82520    -1.18659   -13.61423
   389  C   4.0    0.02    4.27    4.14    10.00505    -0.48341   -15.99660
   390  C   4.0    0.15    3.38    3.07    10.66072     2.39146   -15.99328
   391  O   6.0   -0.32    1.33    1.80     9.56620     3.89440   -17.37951
   392  C   4.0   -0.06    4.16    3.92     8.42738    -1.25274   -18.27931
   393  H   1.0    0.06    1.09    1.44    10.09854    -1.42568   -12.21202
   394  H   1.0    0.01    1.05    1.44    11.82555    -1.48547   -16.06051
   395  H   1.0    0.02    1.00    1.43     9.49163    -0.84022   -19.98961
   396  H   1.0    0.03    1.01    1.43     8.03320    -3.24815   -18.17523
   397  H   1.0    0.07    1.01    1.43     6.66460    -0.21127   -18.33303
   398  N   5.0   -0.14    3.29    1.98    12.58207     3.13576   -14.48086
   399  C   4.0    0.02    4.24    4.07    13.49648     5.70507   -14.81458
   400  C   4.0    0.24    3.07    3.02    15.37006     6.90807   -12.94177
   401  O   6.0   -0.32    1.18    1.80    16.90881     8.39700   -13.91397
   402  O   6.0   -0.31    1.16    1.80    15.25260     6.47036   -10.62379
   403  H   1.0    0.07    1.05    1.44    13.53937     1.87181   -13.42598
   404  H   1.0    0.04    1.03    1.43    14.37184     5.86975   -16.69055
   405  H   1.0    0.07    1.03    1.43    11.81858     6.92553   -14.85612
   406  N   5.0   -0.22    3.27    1.97   -16.31596     5.10533   -10.49653
   407  C   4.0    0.03    4.39    4.36   -15.60749     6.27175   -12.81508
   408  C   4.0    0.14    3.51    3.12   -12.92771     7.32210   -12.61038
   409  O   6.0   -0.29    1.26    1.80   -11.59679     7.23269   -14.50836
   410  C   4.0   -0.03    4.38    4.35   -17.19382     8.51809   -13.34344
   411  C   4.0    0.23    3.13    3.03   -19.79540     7.71756   -14.36666
   412  O   6.0   -0.34    1.19    1.80   -20.14751     5.49343   -15.00696
   413  O   6.0   -0.33    1.17    1.80   -21.32962     9.53723   -14.43949
   414  H   1.0    0.07    1.03    1.43   -17.91284     5.69271    -9.60268
   415  H   1.0    0.05    1.06    1.44   -15.64674     4.91934   -14.38356
   416  H   1.0    0.04    1.03    1.43   -17.45172     9.64959   -11.63630
   417  H   1.0    0.05    1.04    1.43   -16.30784     9.70795   -14.78113
   418  N   5.0   -0.15    3.49    2.07   -12.14885     8.39536   -10.46938
   419  C   4.0    0.04    4.36    4.31    -9.66683     9.50970   -10.32073
   420  C   4.0    0.16    3.42    3.08    -7.58083     7.53065   -10.77477
   421  O   6.0   -0.30    1.33    1.80    -5.51941     8.18007   -11.56297
   422  C   4.0   -0.07    4.12    3.83    -9.32264    10.88854    -7.86011
   423  H   1.0    0.07    1.06    1.44   -13.32578     8.59927    -8.97303
   424  H   1.0    0.07    1.06    1.44    -9.46014    10.86038   -11.88678
   425  H   1.0    0.07    1.01    1.43    -7.45711    11.74057    -7.79404
   426  H   1.0    0.05    1.00    1.43   -10.72097    12.38265    -7.69313
   427  H   1.0    0.03    1.00    1.43    -9.54217     9.58351    -6.28430
   428  N   5.0   -0.14    3.52    2.09    -8.12718     5.11884   -10.23573
   429  C   4.0    0.03    4.34    4.28    -6.21155     3.06750   -10.58691
   430  C   4.0    0.09    3.20    3.04    -6.50726     2.07598   -13.25297
   431  O   6.0   -0.27    1.12    1.80    -4.84136     2.14569   -14.83114
   432  C   4.0   -0.06    4.25    4.11    -6.48314     1.23038    -8.41960
   433  C   4.0   -0.04    4.30    4.20    -6.37975     2.77522    -6.01214
   434  C   4.0    0.14    3.21    3.04    -5.62726     1.40816    -3.62205
   435  O   6.0   -0.27    1.24    1.80    -4.23459     2.44377    -2.06472
   436  N   5.0   -0.20    3.18    1.95    -6.68297    -0.86001    -3.19657
   437  H   1.0    0.07    1.07    1.44    -9.84469     4.63868    -9.56837
   438  H   1.0    0.07    1.07    1.44    -4.37403     4.02733   -10.52341
   439  H   1.0    0.03    1.03    1.43    -8.24137     0.17474    -8.57059
   440  H   1.0    0.04    1.03    1.43    -4.91015    -0.10601    -8.51358
   441  H   1.0    0.05    1.04    1.43    -5.06511     4.34879    -6.24589
   442  H   1.0    0.04    1.03    1.43    -8.24100     3.60090    -5.64777
   443  H   1.0    0.06    1.03    1.43    -7.66676    -1.72440    -4.57576
   444  H   1.0    0.08    1.03    1.43    -5.84970    -1.90622    -1.81221
   445  H   1.0    0.07    1.08    1.44     5.42129    31.67773     7.18771
   446  H   1.0    0.05    1.05    1.44    11.50585    27.17580     1.90793
   447  H   1.0    0.08    1.07    1.44     7.68785    23.09958     3.54947
   448  H   1.0    0.08    1.07    1.44    10.58288    38.11467   -18.77053
   449  H   1.0    0.03    1.04    1.44    14.69690    40.13364   -14.21817
   450  H   1.0    0.06    1.06    1.44     9.51518    47.27268   -15.72384
   451  H   1.0    0.03    1.05    1.44    12.83404    49.50133    -7.96080
   452  H   1.0    0.08    1.07    1.44   -11.84403    31.59156    -9.87923
   453  H   1.0    0.04    1.05    1.44    -8.82791    31.56772    -1.76008
   454  H   1.0    0.07    1.07    1.44   -12.66194    27.50310    -1.51129
   455  H   1.0    0.05    1.04    1.43    -5.02811    24.27424     2.25265
   456  H   1.0    0.08    1.07    1.44   -10.19864    17.00883     3.52178
   457  H   1.0    0.05    1.04    1.43    -4.17800    15.85134     5.16289
   458  H   1.0    0.08    1.07    1.44    -6.26797     7.53257     9.13187
   459  H   1.0    0.03    1.05    1.44    -1.30979     8.14585    13.79979
   460  H   1.0    0.07    1.07    1.44     7.53257    -6.26797    -9.13187
   461  H   1.0    0.08    1.08    1.44   -16.55984     3.44126   -10.74944
   462  H   1.0    0.05    1.05    1.44    -8.14585     1.30979   -13.79979

  Z AO/shell   Hii/eV     exponent
  1     Wed Apr 25 08:07:45 CEST 2018   EN: 2.200 GM2: 0.406  GM3: 0.0800  RAES: 1.40
     1s    -10.707211    1.230000
  6     Wed Apr 25 08:07:45 CEST 2018   EN: 2.550 GM2: 0.538  GM3: 0.1500  RAES: 3.00
     2s    -13.970922    2.096432
     2p    -10.063292    1.800000
  7     Wed Apr 25 08:07:45 CEST 2018   EN: 3.040 GM2: 0.461  GM3:-0.0640  RAES: 1.90
     2s    -16.686243    2.339881
     2p    -12.523956    2.014332
  8     Wed Apr 25 08:07:45 CEST 2018   EN: 3.440 GM2: 0.452  GM3:-0.0517  RAES: 1.80
     2s    -20.229985    2.439742
     2p    -15.503117    2.137023
 16     Tue Apr 24 11:44:34 CEST 2018   EN: 2.580 GM2: 0.340  GM3:-0.0502  RAES: 3.10
     3s    -20.029654    1.981333
     3p    -11.377694    2.025643
     3d     -0.420282    1.702555
 no old-style atom pair restraining (fixing) potential

molecular fragmentation (1/2 indicates fragments):
111111111111111111111111111111111222222222222222222222222222222222222222
222222222222222222222222222222222222222222222222222222222222222222222222
222222222222222222222222222222222222222222222222222222222222222222222222
222222222222222222222222222222222222222222222222222222222222222222222222
222222222222222222222222222222222222222222222222222222222222222222222222
222222222222222222222222222222222222222222222222222222222222222222222222
222222222222112222222222222222
# atoms in fragment 1/2:    35   427
 fragment masses (1/2) :      229.28     2965.28
CMA distance (Bohr)    :  17.952
constraining FC (au)   :  0.0500
           ------------------------------------------------- 
          |        Self-Consistent Charge Iterations        |
           ------------------------------------------------- 

 Ncao       : 1125
 Nao        : 1124
 Nshell     : 682
 Nel        : 1276
 T(el)      :   500.0
 intcut     :    35.0
 scfconv/Eh :  0.100E-06
   qconv/e  :  0.100E-04
 intneglect :  0.100E-08
 broydamp   :      0.400
 iter      E             dE          RMSdq      gap      omega  full diag
   1   -739.6358077 -0.739636E+03  0.495E+00    2.87       0.0  T
   2   -741.7267013 -0.209089E+01  0.230E+00    1.08       1.0  T
   3   -741.8694636 -0.142762E+00  0.131E+00    1.55       1.0  T
   4   -742.0036278 -0.134164E+00  0.293E-01    0.92       1.0  T
   5   -742.0120090 -0.838124E-02  0.147E-01    1.16       1.0  T
   6   -742.0137321 -0.172308E-02  0.570E-02    1.07       1.0  T
   7   -742.0140983 -0.366204E-03  0.266E-02    1.09       1.0  T
   8   -742.0141395 -0.411448E-04  0.115E-02    1.08       1.0  T
   9   -742.0141541 -0.146034E-04  0.524E-03    1.08       1.0  T
  10   -742.0141562 -0.211993E-05  0.271E-03    1.08       1.7  T
  11   -742.0141569 -0.687426E-06  0.118E-03    1.08       4.0  T
  12   -742.0141570 -0.111849E-06  0.628E-04    1.08       7.4  T
  13   -742.0141570 -0.307178E-07  0.309E-04    1.08      15.1  T
  14   -742.0141570 -0.580462E-08  0.140E-04    1.08      33.3  T
  15   -742.0141570 -0.179716E-08  0.607E-05    1.08      76.7  T
  16   -742.0141570 -0.217938E-09  0.275E-05    1.08     169.4  T
speedup  9.16
cpu  time for SCC   33.63 s
wall time for SCC    3.67 s

   *** convergence criteria satisfied after 16 iterations ***

          eigenvalues
 #    :         626        627        628        629        630        631        632        633
 occ. :        2.000      2.000      2.000      2.000      2.000      2.000      2.000      2.000
 eps  :       -10.065    -10.045    -10.019    -10.009     -9.913     -9.903     -9.877     -9.855
 #    :         634        635        636        637        638        639        640        641
 occ. :        2.000      2.000      2.000      2.000      2.000      0.000      0.000      0.000
 eps  :        -9.738     -9.703     -9.697     -9.465     -9.338     -8.255     -7.887     -7.870
 #    :         642        643        644        645        646        647        648        649
 occ. :        0.000      0.000      0.000      0.000      0.000      0.000      0.000      0.000
 eps  :        -7.853     -7.703     -7.698     -7.661     -7.541     -6.716     -6.550     -6.394


   #   Z            q   n(s)   n(p)   n(d)      C6AA      α(0)
   1   7 N     -0.392  1.301  4.090  0.000    30.137     8.153
   2   6 C      0.033  1.054  2.913  0.000    20.036     6.376
   3   6 C      0.260  1.053  2.687  0.000    22.622     7.789
   4   8 O     -0.499  1.752  4.747  0.000    23.764     6.536
   5   6 C     -0.080  1.066  3.014  0.000    22.019     6.679
   6   6 C     -0.008  1.050  2.958  0.000    20.693     6.470
   7   6 C     -0.114  1.041  3.073  0.000    22.699     6.787
   8   6 C     -0.111  1.039  3.072  0.000    22.656     6.782
   9   1 H      0.174  0.826  0.000  0.000     1.246     1.749
  10   1 H      0.041  0.959  0.000  0.000     2.441     2.443
  11   1 H      0.058  0.942  0.000  0.000     2.227     2.334
  12   1 H      0.049  0.951  0.000  0.000     2.338     2.391
  13   1 H      0.038  0.962  0.000  0.000     2.470     2.458
  14   1 H      0.042  0.958  0.000  0.000     2.417     2.431
  15   1 H      0.039  0.961  0.000  0.000     2.457     2.451
  16   1 H      0.043  0.957  0.000  0.000     2.412     2.429
  17   1 H      0.042  0.958  0.000  0.000     2.418     2.432
  18   1 H      0.040  0.960  0.000  0.000     2.448     2.447
  19   1 H      0.024  0.976  0.000  0.000     2.673     2.557
  20   7 N     -0.161  1.240  3.921  0.000    24.490     7.350
  21   6 C      0.033  1.052  2.915  0.000    20.030     6.373
  22   6 C      0.199  1.091  2.710  0.000    23.761     7.984
  23   8 O     -0.395  1.778  4.617  0.000    21.586     6.229
  24   6 C     -0.119  1.061  3.058  0.000    22.741     6.785
  25   6 C      0.299  1.015  2.686  0.000    21.927     7.667
  26   8 O     -0.526  1.774  4.752  0.000    24.372     6.619
  27   7 N     -0.250  1.247  4.004  0.000    26.514     7.648
  28   1 H      0.235  0.765  0.000  0.000     0.946     1.523
  29   1 H      0.093  0.907  0.000  0.000     1.846     2.125
  30   1 H      0.118  0.882  0.000  0.000     1.626     1.994
  31   1 H      0.095  0.905  0.000  0.000     1.833     2.117
  32   1 H      0.218  0.782  0.000  0.000     1.020     1.582
  33   1 H      0.231  0.769  0.000  0.000     0.962     1.537
  34   7 N     -0.399  1.322  4.076  0.000    30.339     8.180
  35   6 C      0.033  1.062  2.905  0.000    20.035     6.377
  36   6 C      0.254  1.065  2.681  0.000    22.723     7.805
  37   8 O     -0.516  1.757  4.759  0.000    24.139     6.587
  38   6 C     -0.122  1.044  3.079  0.000    22.906     6.825
  39   1 H      0.166  0.834  0.000  0.000     1.297     1.784
  40   1 H      0.039  0.961  0.000  0.000     2.462     2.454
  41   1 H      0.044  0.956  0.000  0.000     2.391     2.418
  42   1 H      0.072  0.928  0.000  0.000     2.058     2.244
  43   1 H      0.063  0.937  0.000  0.000     2.166     2.301
  44   7 N     -0.185  1.253  3.932  0.000    25.005     7.427
  45   6 C      0.034  1.042  2.924  0.000    19.996     6.367
  46   6 C      0.280  1.045  2.675  0.000    22.267     7.727
  47   8 O     -0.510  1.759  4.750  0.000    23.998     6.568
  48   6 C     -0.079  1.060  3.019  0.000    21.990     6.672
  49   6 C     -0.015  1.060  2.956  0.000    20.817     6.490
  50   6 C     -0.122  1.043  3.079  0.000    22.867     6.814
  51   6 C     -0.108  1.037  3.071  0.000    22.619     6.782
  52   1 H      0.241  0.759  0.000  0.000     0.919     1.502
  53   1 H      0.071  0.929  0.000  0.000     2.072     2.251
  54   1 H      0.061  0.939  0.000  0.000     2.191     2.315
  55   1 H      0.054  0.946  0.000  0.000     2.268     2.355
  56   1 H      0.065  0.935  0.000  0.000     2.146     2.291
  57   1 H      0.059  0.941  0.000  0.000     2.214     2.327
  58   1 H      0.052  0.948  0.000  0.000     2.289     2.366
  59   1 H      0.049  0.951  0.000  0.000     2.338     2.391
  60   1 H      0.044  0.956  0.000  0.000     2.393     2.419
  61   1 H      0.032  0.968  0.000  0.000     2.564     2.504
  62   1 H      0.022  0.978  0.000  0.000     2.703     2.571
  63   7 N     -0.209  1.262  3.947  0.000    25.541     7.506
  64   6 C      0.027  1.064  2.909  0.000    20.130     6.390
  65   6 C      0.278  1.039  2.683  0.000    22.295     7.732
  66   8 O     -0.539  1.756  4.783  0.000    24.665     6.659
  67   6 C     -0.049  1.049  2.999  0.000    21.442     6.592
  68   6 C     -0.092  1.062  3.030  0.000    22.259     6.717
  69   6 C      0.368  1.023  2.609  0.000    20.759     7.457
  70   8 O     -0.651  1.774  4.878  0.000    27.414     7.020
  71   8 O     -0.660  1.774  4.886  0.000    27.649     7.050
  72   1 H      0.229  0.771  0.000  0.000     0.968     1.541
  73   1 H      0.060  0.940  0.000  0.000     2.194     2.317
  74   1 H      0.054  0.946  0.000  0.000     2.275     2.359
  75   1 H      0.040  0.960  0.000  0.000     2.455     2.450
  76   1 H      0.036  0.964  0.000  0.000     2.504     2.475
  77   1 H      0.053  0.947  0.000  0.000     2.282     2.362
  78   7 N     -0.173  1.253  3.919  0.000    24.734     7.386
  79   6 C      0.028  1.067  2.905  0.000    20.105     6.386
  80   6 C      0.274  1.049  2.677  0.000    22.360     7.743
  81   8 O     -0.527  1.759  4.768  0.000    24.400     6.623
  82   6 C     -0.089  1.070  3.019  0.000    22.197     6.708
  83   6 C     -0.010  1.063  2.947  0.000    20.725     6.476
  84   6 C     -0.124  1.040  3.084  0.000    22.940     6.829
  85   6 C     -0.123  1.041  3.082  0.000    22.920     6.827
  86   1 H      0.219  0.781  0.000  0.000     1.014     1.577
  87   1 H      0.076  0.924  0.000  0.000     2.025     2.226
  88   1 H      0.077  0.923  0.000  0.000     2.011     2.218
  89   1 H      0.063  0.937  0.000  0.000     2.169     2.303
  90   1 H      0.022  0.978  0.000  0.000     2.703     2.571
  91   1 H      0.053  0.947  0.000  0.000     2.281     2.362
  92   1 H      0.026  0.974  0.000  0.000     2.651     2.546
  93   1 H      0.061  0.939  0.000  0.000     2.183     2.311
  94   1 H      0.055  0.945  0.000  0.000     2.260     2.351
  95   1 H      0.066  0.934  0.000  0.000     2.127     2.281
  96   1 H      0.049  0.951  0.000  0.000     2.339     2.391
  97   7 N     -0.175  1.248  3.927  0.000    24.783     7.394
  98   6 C      0.027  1.066  2.908  0.000    20.140     6.392
  99   6 C      0.278  1.052  2.669  0.000    22.294     7.732
 100   8 O     -0.533  1.745  4.788  0.000    24.523     6.639
 101   6 C     -0.078  1.065  3.013  0.000    21.986     6.676
 102   6 C     -0.068  1.053  3.015  0.000    21.813     6.651
 103   6 C     -0.082  1.055  3.026  0.000    22.053     6.686
 104   6 C     -0.006  1.045  2.961  0.000    20.782     6.507
 105   7 N     -0.178  1.250  3.927  0.000    24.834     7.401
 106   1 H      0.225  0.775  0.000  0.000     0.987     1.557
 107   1 H      0.091  0.909  0.000  0.000     1.869     2.138
 108   1 H      0.079  0.921  0.000  0.000     1.990     2.206
 109   1 H      0.068  0.932  0.000  0.000     2.103     2.268
 110   1 H      0.016  0.984  0.000  0.000     2.796     2.615
 111   1 H      0.078  0.922  0.000  0.000     2.004     2.214
 112   1 H      0.072  0.928  0.000  0.000     2.064     2.247
 113   1 H      0.079  0.921  0.000  0.000     1.993     2.208
 114   1 H      0.081  0.919  0.000  0.000     1.971     2.195
 115   1 H      0.074  0.926  0.000  0.000     2.040     2.233
 116   1 H      0.267  0.733  0.000  0.000     0.822     1.420
 117   1 H      0.305  0.695  0.000  0.000     0.699     1.310
 118   1 H      0.248  0.752  0.000  0.000     0.892     1.479
 119   7 N     -0.179  1.248  3.931  0.000    24.881     7.408
 120   6 C      0.062  1.038  2.900  0.000    19.536     6.292
 121   6 C      0.276  1.044  2.680  0.000    22.328     7.740
 122   8 O     -0.529  1.751  4.779  0.000    24.445     6.629
 123   6 C     -0.090  1.057  3.033  0.000    22.196     6.703
 124   6 C      0.376  1.018  2.605  0.000    20.629     7.433
 125   8 O     -0.588  1.766  4.821  0.000    25.815     6.812
 126   8 O     -0.580  1.743  4.838  0.000    25.639     6.789
 127   1 H      0.225  0.775  0.000  0.000     0.987     1.556
 128   1 H      0.054  0.946  0.000  0.000     2.271     2.357
 129   1 H      0.049  0.951  0.000  0.000     2.334     2.389
 130   1 H      0.040  0.960  0.000  0.000     2.442     2.444
 131   7 N     -0.191  1.249  3.942  0.000    25.152     7.449
 132   6 C      0.054  1.048  2.898  0.000    19.666     6.314
 133   6 C      0.284  1.042  2.674  0.000    22.189     7.713
 134   8 O     -0.489  1.739  4.750  0.000    23.540     6.505
 135   6 C     -0.118  1.037  3.081  0.000    22.802     6.808
 136   1 H      0.221  0.779  0.000  0.000     1.006     1.571
 137   1 H      0.040  0.960  0.000  0.000     2.444     2.445
 138   1 H      0.079  0.921  0.000  0.000     1.989     2.206
 139   1 H      0.069  0.931  0.000  0.000     2.091     2.261
 140   1 H      0.059  0.941  0.000  0.000     2.206     2.323
 141   7 N     -0.189  1.251  3.939  0.000    25.105     7.441
 142   6 C      0.029  1.069  2.902  0.000    20.074     6.377
 143   6 C      0.285  1.028  2.686  0.000    22.164     7.709
 144   8 O     -0.469  1.743  4.726  0.000    23.119     6.447
 145   6 C     -0.073  1.049  3.024  0.000    21.885     6.660
 146   6 C     -0.095  1.053  3.042  0.000    22.304     6.722
 147   6 C      0.286  1.040  2.674  0.000    22.149     7.706
 148   8 O     -0.493  1.738  4.755  0.000    23.621     6.516
 149   7 N     -0.273  1.273  4.000  0.000    27.059     7.726
 150   1 H      0.194  0.806  0.000  0.000     1.135     1.669
 151   1 H      0.069  0.931  0.000  0.000     2.092     2.262
 152   1 H      0.073  0.927  0.000  0.000     2.051     2.240
 153   1 H      0.050  0.950  0.000  0.000     2.323     2.383
 154   1 H      0.052  0.948  0.000  0.000     2.295     2.369
 155   1 H      0.084  0.916  0.000  0.000     1.937     2.177
 156   1 H      0.204  0.796  0.000  0.000     1.087     1.633
 157   1 H      0.249  0.751  0.000  0.000     0.887     1.476
 158   7 N     -0.192  1.250  3.942  0.000    25.174     7.452
 159   6 C      0.039  1.062  2.900  0.000    19.943     6.361
 160   6 C      0.273  1.056  2.672  0.000    22.388     7.748
 161   8 O     -0.472  1.737  4.735  0.000    23.166     6.453
 162   6 C     -0.121  1.036  3.085  0.000    22.878     6.820
 163   1 H      0.213  0.787  0.000  0.000     1.040     1.598
 164   1 H      0.034  0.966  0.000  0.000     2.535     2.490
 165   1 H      0.046  0.954  0.000  0.000     2.368     2.406
 166   1 H      0.092  0.908  0.000  0.000     1.862     2.134
 167   1 H      0.071  0.929  0.000  0.000     2.070     2.250
 168   7 N     -0.171  1.245  3.926  0.000    24.702     7.382
 169   6 C     -0.017  1.052  2.964  0.000    20.935     6.526
 170   6 C      0.358  1.021  2.620  0.000    20.921     7.485
 171   8 O     -0.605  1.761  4.843  0.000    26.235     6.867
 172   8 O     -0.547  1.747  4.800  0.000    24.844     6.683
 173   1 H      0.189  0.811  0.000  0.000     1.162     1.689
 174   1 H      0.040  0.960  0.000  0.000     2.450     2.448
 175   1 H      0.062  0.938  0.000  0.000     2.175     2.306
 176   8 O     -0.658  1.771  4.888  0.000    26.625     6.964
 177   1 H      0.330  0.670  0.000  0.000     0.637     1.254
 178   1 H      0.310  0.690  0.000  0.000     0.692     1.306
 179   8 O     -0.614  1.746  4.868  0.000    25.517     6.818
 180   1 H      0.289  0.711  0.000  0.000     0.754     1.364
 181   1 H      0.299  0.701  0.000  0.000     0.723     1.335
 182   8 O     -0.629  1.765  4.865  0.000    25.900     6.869
 183   1 H      0.324  0.676  0.000  0.000     0.654     1.270
 184   1 H      0.297  0.703  0.000  0.000     0.730     1.342
 185   8 O     -0.627  1.753  4.875  0.000    25.850     6.862
 186   1 H      0.293  0.707  0.000  0.000     0.742     1.353
 187   1 H      0.325  0.675  0.000  0.000     0.652     1.268
 188   8 O     -0.649  1.766  4.883  0.000    26.385     6.933
 189   1 H      0.306  0.694  0.000  0.000     0.704     1.318
 190   1 H      0.328  0.672  0.000  0.000     0.642     1.259
 191   8 O     -0.614  1.738  4.876  0.000    25.517     6.818
 192   1 H      0.281  0.719  0.000  0.000     0.781     1.388
 193   1 H      0.307  0.693  0.000  0.000     0.700     1.315
 194   8 O     -0.621  1.733  4.888  0.000    25.694     6.841
 195   1 H      0.312  0.688  0.000  0.000     0.685     1.300
 196   1 H      0.312  0.688  0.000  0.000     0.686     1.301
 197   8 O     -0.630  1.767  4.863  0.000    25.920     6.871
 198   1 H      0.315  0.685  0.000  0.000     0.677     1.292
 199   1 H      0.315  0.685  0.000  0.000     0.678     1.293
 200   8 O     -0.637  1.739  4.898  0.000    26.088     6.894
 201   1 H      0.320  0.680  0.000  0.000     0.663     1.279
 202   1 H      0.296  0.704  0.000  0.000     0.732     1.344
 203   8 O     -0.622  1.747  4.875  0.000    25.717     6.844
 204   1 H      0.314  0.686  0.000  0.000     0.682     1.297
 205   1 H      0.291  0.709  0.000  0.000     0.749     1.360
 206   8 O     -0.656  1.764  4.891  0.000    26.558     6.955
 207   1 H      0.305  0.695  0.000  0.000     0.707     1.321
 208   1 H      0.326  0.674  0.000  0.000     0.647     1.263
 209   8 O     -0.601  1.747  4.854  0.000    25.211     6.777
 210   1 H      0.295  0.705  0.000  0.000     0.737     1.349
 211   1 H      0.311  0.689  0.000  0.000     0.688     1.303
 212   8 O     -0.652  1.762  4.890  0.000    26.468     6.943
 213   1 H      0.309  0.691  0.000  0.000     0.696     1.310
 214   1 H      0.305  0.695  0.000  0.000     0.705     1.319
 215   7 N     -0.387  1.307  4.080  0.000    30.015     8.137
 216   6 C      0.040  1.056  2.904  0.000    19.917     6.358
 217   6 C      0.191  1.101  2.708  0.000    23.921     8.010
 218   8 O     -0.370  1.753  4.617  0.000    21.094     6.158
 219   6 C     -0.083  1.066  3.018  0.000    22.093     6.692
 220   6 C     -0.085  1.061  3.023  0.000    22.123     6.697
 221   6 C     -0.031  1.066  2.965  0.000    21.217     6.574
 222   7 N     -0.171  1.229  3.942  0.000    24.699     7.381
 223   6 C      0.241  1.013  2.746  0.000    22.966     7.846
 224   7 N     -0.267  1.236  4.032  0.000    26.923     7.706
 225   7 N     -0.283  1.249  4.033  0.000    27.295     7.759
 226   1 H      0.166  0.834  0.000  0.000     1.297     1.784
 227   1 H      0.051  0.949  0.000  0.000     2.304     2.374
 228   1 H      0.069  0.931  0.000  0.000     2.092     2.262
 229   1 H      0.067  0.933  0.000  0.000     2.119     2.276
 230   1 H      0.079  0.921  0.000  0.000     1.992     2.207
 231   1 H      0.075  0.925  0.000  0.000     2.029     2.228
 232   1 H      0.087  0.913  0.000  0.000     1.910     2.161
 233   1 H      0.074  0.926  0.000  0.000     2.045     2.236
 234   1 H      0.243  0.757  0.000  0.000     0.910     1.494
 235   1 H      0.231  0.769  0.000  0.000     0.960     1.535
 236   1 H      0.219  0.781  0.000  0.000     1.013     1.576
 237   1 H      0.227  0.773  0.000  0.000     0.978     1.549
 238   1 H      0.232  0.768  0.000  0.000     0.958     1.533
 239   7 N     -0.398  1.326  4.072  0.000    30.328     8.179
 240   6 C      0.030  1.062  2.908  0.000    20.076     6.381
 241   6 C      0.265  1.053  2.682  0.000    22.523     7.772
 242   8 O     -0.523  1.768  4.755  0.000    24.307     6.610
 243   6 C     -0.064  1.051  3.013  0.000    21.679     6.621
 244   6 C     -0.002  1.052  2.949  0.000    20.605     6.462
 245  16 S     -0.231  1.919  4.257  0.054   150.920    20.677
 246   6 C     -0.062  1.055  3.007  0.000    21.760     6.654
 247   1 H      0.158  0.842  0.000  0.000     1.346     1.817
 248   1 H      0.034  0.966  0.000  0.000     2.534     2.490
 249   1 H      0.051  0.949  0.000  0.000     2.310     2.377
 250   1 H      0.062  0.938  0.000  0.000     2.175     2.306
 251   1 H      0.044  0.956  0.000  0.000     2.395     2.420
 252   1 H      0.049  0.951  0.000  0.000     2.332     2.388
 253   1 H      0.066  0.934  0.000  0.000     2.127     2.281
 254   1 H      0.062  0.938  0.000  0.000     2.177     2.307
 255   1 H      0.058  0.942  0.000  0.000     2.221     2.330
 256   7 N     -0.158  1.236  3.922  0.000    24.416     7.339
 257   6 C      0.034  1.052  2.914  0.000    19.996     6.366
 258   6 C      0.206  1.088  2.706  0.000    23.628     7.961
 259   8 O     -0.374  1.757  4.617  0.000    21.160     6.167
 260   6 C     -0.079  1.061  3.018  0.000    22.003     6.678
 261   6 C      0.015  1.080  2.905  0.000    27.672     8.628
 262   6 C     -0.039  1.080  2.959  0.000    28.964     8.827
 263   6 C     -0.037  1.081  2.956  0.000    28.911     8.819
 264   6 C     -0.031  1.072  2.959  0.000    28.773     8.797
 265   6 C     -0.045  1.082  2.963  0.000    29.112     8.849
 266   6 C     -0.035  1.075  2.961  0.000    28.883     8.814
 267   1 H      0.236  0.764  0.000  0.000     0.938     1.517
 268   1 H      0.087  0.913  0.000  0.000     1.910     2.161
 269   1 H      0.078  0.922  0.000  0.000     1.999     2.211
 270   1 H      0.077  0.923  0.000  0.000     2.005     2.214
 271   1 H      0.037  0.963  0.000  0.000     2.492     2.468
 272   1 H      0.040  0.960  0.000  0.000     2.443     2.444
 273   1 H      0.046  0.954  0.000  0.000     2.375     2.410
 274   1 H      0.037  0.963  0.000  0.000     2.492     2.469
 275   1 H      0.041  0.959  0.000  0.000     2.442     2.444
 276   7 N     -0.393  1.311  4.082  0.000    30.170     8.158
 277   6 C      0.030  1.068  2.902  0.000    20.086     6.384
 278   6 C      0.264  1.051  2.685  0.000    22.547     7.776
 279   8 O     -0.506  1.749  4.757  0.000    23.917     6.557
 280   6 C     -0.061  1.058  3.003  0.000    21.669     6.627
 281   6 C     -0.086  1.060  3.026  0.000    22.142     6.699
 282   6 C      0.370  1.026  2.604  0.000    20.729     7.451
 283   8 O     -0.607  1.756  4.851  0.000    26.290     6.874
 284   8 O     -0.651  1.776  4.876  0.000    27.416     7.020
 285   1 H      0.171  0.829  0.000  0.000     1.267     1.763
 286   1 H      0.020  0.980  0.000  0.000     2.729     2.584
 287   1 H      0.039  0.961  0.000  0.000     2.459     2.452
 288   1 H      0.062  0.938  0.000  0.000     2.171     2.304
 289   1 H      0.028  0.972  0.000  0.000     2.611     2.527
 290   1 H      0.006  0.994  0.000  0.000     2.953     2.687
 291   7 N     -0.151  1.230  3.921  0.000    24.268     7.316
 292   6 C      0.027  1.055  2.918  0.000    20.121     6.386
 293   6 C      0.198  1.089  2.713  0.000    23.786     7.987
 294   8 O     -0.363  1.756  4.607  0.000    20.966     6.139
 295   6 C     -0.082  1.067  3.015  0.000    22.057     6.685
 296   6 C     -0.017  1.052  2.965  0.000    20.846     6.494
 297   6 C     -0.117  1.042  3.076  0.000    22.768     6.797
 298   6 C     -0.113  1.040  3.074  0.000    22.692     6.787
 299   1 H      0.222  0.778  0.000  0.000     1.002     1.568
 300   1 H      0.086  0.914  0.000  0.000     1.920     2.167
 301   1 H      0.068  0.932  0.000  0.000     2.103     2.268
 302   1 H      0.075  0.925  0.000  0.000     2.036     2.231
 303   1 H      0.052  0.948  0.000  0.000     2.291     2.367
 304   1 H      0.052  0.948  0.000  0.000     2.296     2.369
 305   1 H      0.037  0.963  0.000  0.000     2.486     2.466
 306   1 H      0.052  0.948  0.000  0.000     2.298     2.371
 307   1 H      0.051  0.949  0.000  0.000     2.311     2.378
 308   1 H      0.049  0.951  0.000  0.000     2.328     2.386
 309   1 H      0.025  0.975  0.000  0.000     2.659     2.550
 310   7 N     -0.379  1.312  4.068  0.000    29.805     8.108
 311   6 C      0.031  1.060  2.909  0.000    20.078     6.383
 312   6 C      0.263  1.053  2.684  0.000    22.566     7.780
 313   8 O     -0.508  1.745  4.763  0.000    23.955     6.562
 314   6 C     -0.053  1.052  3.001  0.000    21.518     6.602
 315   6 C     -0.089  1.064  3.025  0.000    22.194     6.708
 316   6 C      0.367  1.028  2.605  0.000    20.778     7.459
 317   8 O     -0.636  1.765  4.871  0.000    27.016     6.969
 318   8 O     -0.626  1.777  4.849  0.000    26.763     6.936
 319   1 H      0.146  0.854  0.000  0.000     1.428     1.872
 320   1 H      0.041  0.959  0.000  0.000     2.436     2.441
 321   1 H      0.037  0.963  0.000  0.000     2.483     2.464
 322   1 H      0.028  0.972  0.000  0.000     2.615     2.529
 323   1 H      0.033  0.967  0.000  0.000     2.547     2.496
 324   1 H      0.035  0.965  0.000  0.000     2.514     2.479
 325   7 N     -0.181  1.253  3.929  0.000    24.923     7.415
 326   6 C      0.035  1.061  2.904  0.000    19.999     6.370
 327   6 C      0.201  1.091  2.708  0.000    23.714     7.975
 328   8 O     -0.349  1.755  4.594  0.000    20.686     6.098
 329   6 C     -0.122  1.042  3.080  0.000    22.887     6.822
 330   1 H      0.230  0.770  0.000  0.000     0.967     1.540
 331   1 H      0.063  0.937  0.000  0.000     2.161     2.299
 332   1 H      0.061  0.939  0.000  0.000     2.188     2.313
 333   1 H      0.069  0.931  0.000  0.000     2.098     2.265
 334   1 H      0.084  0.916  0.000  0.000     1.941     2.179
 335   7 N     -0.400  1.323  4.077  0.000    30.363     8.184
 336   6 C      0.042  1.060  2.898  0.000    19.886     6.353
 337   6 C      0.198  1.102  2.700  0.000    23.780     7.986
 338   8 O     -0.386  1.755  4.632  0.000    21.410     6.204
 339   6 C     -0.073  1.070  3.002  0.000    21.893     6.662
 340   6 C     -0.013  1.065  2.947  0.000    20.773     6.484
 341   6 C     -0.122  1.040  3.082  0.000    22.894     6.823
 342   6 C     -0.115  1.039  3.076  0.000    22.771     6.805
 343   1 H      0.172  0.828  0.000  0.000     1.263     1.761
 344   1 H      0.048  0.952  0.000  0.000     2.341     2.393
 345   1 H      0.049  0.951  0.000  0.000     2.337     2.391
 346   1 H      0.052  0.948  0.000  0.000     2.300     2.371
 347   1 H      0.031  0.969  0.000  0.000     2.571     2.508
 348   1 H      0.042  0.958  0.000  0.000     2.426     2.436
 349   1 H      0.051  0.949  0.000  0.000     2.313     2.378
 350   1 H      0.038  0.962  0.000  0.000     2.472     2.459
 351   1 H      0.036  0.964  0.000  0.000     2.501     2.473
 352   1 H      0.045  0.955  0.000  0.000     2.387     2.416
 353   1 H      0.036  0.964  0.000  0.000     2.504     2.474
 354   7 N     -0.391  1.317  4.074  0.000    30.121     8.151
 355   6 C      0.031  1.062  2.907  0.000    20.063     6.379
 356   6 C      0.209  1.083  2.708  0.000    23.575     7.952
 357   8 O     -0.367  1.749  4.618  0.000    21.039     6.150
 358   6 C     -0.066  1.049  3.017  0.000    21.757     6.640
 359   6 C     -0.097  1.054  3.043  0.000    22.346     6.728
 360   6 C      0.282  1.041  2.677  0.000    22.227     7.719
 361   8 O     -0.496  1.769  4.727  0.000    23.694     6.526
 362   7 N     -0.285  1.276  4.010  0.000    27.363     7.769
 363   1 H      0.168  0.832  0.000  0.000     1.282     1.774
 364   1 H      0.064  0.936  0.000  0.000     2.159     2.298
 365   1 H      0.059  0.941  0.000  0.000     2.215     2.327
 366   1 H      0.047  0.953  0.000  0.000     2.360     2.403
 367   1 H      0.066  0.934  0.000  0.000     2.126     2.280
 368   1 H      0.090  0.910  0.000  0.000     1.874     2.141
 369   1 H      0.218  0.782  0.000  0.000     1.020     1.582
 370   1 H      0.210  0.790  0.000  0.000     1.058     1.611
 371   7 N     -0.402  1.326  4.076  0.000    30.428     8.192
 372   6 C      0.018  1.069  2.913  0.000    20.261     6.408
 373   6 C      0.285  1.032  2.684  0.000    22.180     7.712
 374   8 O     -0.481  1.749  4.732  0.000    23.366     6.481
 375   6 C     -0.058  1.045  3.013  0.000    21.615     6.618
 376   6 C     -0.095  1.056  3.039  0.000    22.291     6.720
 377   6 C      0.286  1.040  2.674  0.000    22.147     7.706
 378   8 O     -0.503  1.754  4.750  0.000    23.859     6.549
 379   7 N     -0.281  1.272  4.008  0.000    27.252     7.753
 380   1 H      0.161  0.839  0.000  0.000     1.327     1.805
 381   1 H      0.060  0.940  0.000  0.000     2.205     2.322
 382   1 H      0.036  0.964  0.000  0.000     2.506     2.475
 383   1 H      0.021  0.979  0.000  0.000     2.723     2.581
 384   1 H      0.076  0.924  0.000  0.000     2.026     2.226
 385   1 H      0.082  0.918  0.000  0.000     1.957     2.188
 386   1 H      0.200  0.800  0.000  0.000     1.107     1.648
 387   1 H      0.236  0.764  0.000  0.000     0.938     1.517
 388   7 N     -0.176  1.247  3.929  0.000    24.820     7.399
 389   6 C      0.023  1.068  2.909  0.000    20.206     6.403
 390   6 C      0.274  1.053  2.673  0.000    22.364     7.744
 391   8 O     -0.486  1.747  4.739  0.000    23.468     6.495
 392   6 C     -0.114  1.034  3.080  0.000    22.741     6.800
 393   1 H      0.200  0.800  0.000  0.000     1.108     1.649
 394   1 H      0.067  0.933  0.000  0.000     2.115     2.274
 395   1 H      0.061  0.939  0.000  0.000     2.192     2.315
 396   1 H      0.079  0.921  0.000  0.000     1.985     2.203
 397   1 H      0.066  0.934  0.000  0.000     2.127     2.281
 398   7 N     -0.174  1.253  3.921  0.000    24.763     7.391
 399   6 C     -0.014  1.058  2.956  0.000    20.888     6.519
 400   6 C      0.367  1.021  2.612  0.000    20.783     7.460
 401   8 O     -0.639  1.767  4.872  0.000    27.096     6.979
 402   8 O     -0.623  1.764  4.859  0.000    26.691     6.927
 403   1 H      0.204  0.796  0.000  0.000     1.087     1.633
 404   1 H      0.036  0.964  0.000  0.000     2.506     2.476
 405   1 H      0.035  0.965  0.000  0.000     2.520     2.483
 406   7 N     -0.391  1.300  4.091  0.000    30.122     8.151
 407   6 C      0.054  1.042  2.904  0.000    19.676     6.317
 408   6 C      0.264  1.052  2.684  0.000    22.542     7.777
 409   8 O     -0.534  1.766  4.769  0.000    24.561     6.645
 410   6 C     -0.080  1.062  3.018  0.000    22.005     6.674
 411   6 C      0.374  1.019  2.607  0.000    20.664     7.440
 412   8 O     -0.617  1.762  4.855  0.000    26.547     6.908
 413   8 O     -0.661  1.778  4.883  0.000    27.674     7.053
 414   1 H      0.161  0.839  0.000  0.000     1.332     1.808
 415   1 H      0.033  0.967  0.000  0.000     2.551     2.498
 416   1 H      0.027  0.973  0.000  0.000     2.625     2.534
 417   1 H      0.003  0.997  0.000  0.000     3.008     2.712
 418   7 N     -0.188  1.243  3.945  0.000    25.078     7.438
 419   6 C      0.040  1.050  2.910  0.000    19.904     6.352
 420   6 C      0.285  1.042  2.672  0.000    22.171     7.710
 421   8 O     -0.494  1.751  4.742  0.000    23.642     6.519
 422   6 C     -0.133  1.040  3.093  0.000    23.103     6.853
 423   1 H      0.222  0.778  0.000  0.000     1.001     1.567
 424   1 H      0.044  0.956  0.000  0.000     2.391     2.418
 425   1 H      0.088  0.912  0.000  0.000     1.903     2.157
 426   1 H      0.074  0.926  0.000  0.000     2.046     2.237
 427   1 H      0.073  0.927  0.000  0.000     2.052     2.240
 428   7 N     -0.176  1.248  3.928  0.000    24.803     7.397
 429   6 C      0.027  1.066  2.907  0.000    20.117     6.386
 430   6 C      0.206  1.075  2.719  0.000    23.628     7.961
 431   8 O     -0.355  1.765  4.590  0.000    20.798     6.114
 432   6 C     -0.078  1.051  3.028  0.000    21.993     6.676
 433   6 C     -0.103  1.055  3.047  0.000    22.444     6.743
 434   6 C      0.281  1.036  2.682  0.000    22.234     7.721
 435   8 O     -0.479  1.765  4.713  0.000    23.316     6.474
 436   7 N     -0.289  1.277  4.011  0.000    27.447     7.781
 437   1 H      0.218  0.782  0.000  0.000     1.018     1.581
 438   1 H      0.080  0.920  0.000  0.000     1.978     2.199
 439   1 H      0.088  0.912  0.000  0.000     1.896     2.153
 440   1 H      0.078  0.922  0.000  0.000     2.002     2.213
 441   1 H      0.059  0.941  0.000  0.000     2.213     2.327
 442   1 H      0.086  0.914  0.000  0.000     1.916     2.165
 443   1 H      0.233  0.767  0.000  0.000     0.954     1.530
 444   1 H      0.240  0.760  0.000  0.000     0.923     1.505
 445   1 H      0.179  0.821  0.000  0.000     1.222     1.731
 446   1 H      0.090  0.910  0.000  0.000     1.875     2.141
 447   1 H      0.183  0.817  0.000  0.000     1.196     1.713
 448   1 H      0.181  0.819  0.000  0.000     1.210     1.723
 449   1 H      0.088  0.912  0.000  0.000     1.893     2.152
 450   1 H      0.184  0.816  0.000  0.000     1.191     1.709
 451   1 H      0.073  0.927  0.000  0.000     2.054     2.241
 452   1 H      0.167  0.833  0.000  0.000     1.288     1.777
 453   1 H      0.076  0.924  0.000  0.000     2.025     2.225
 454   1 H      0.196  0.804  0.000  0.000     1.127     1.663
 455   1 H      0.090  0.910  0.000  0.000     1.874     2.140
 456   1 H      0.181  0.819  0.000  0.000     1.208     1.722
 457   1 H      0.083  0.917  0.000  0.000     1.946     2.181
 458   1 H      0.181  0.819  0.000  0.000     1.209     1.722
 459   1 H      0.076  0.924  0.000  0.000     2.019     2.222
 460   1 H      0.195  0.805  0.000  0.000     1.133     1.667
 461   1 H      0.193  0.807  0.000  0.000     1.141     1.673
 462   1 H      0.084  0.916  0.000  0.000     1.941     2.178

 Mol. C6AA /au·bohr⁶  :    1918906.512870
 Mol. C8AA /au·bohr⁸  :   42056566.266875
 Mol. α(0) /au        :       2060.162539

 
 Wiberg/Mayer (AO) data. WBOs > 0.1 written file <wbo>
 largest (>0.05) Wiberg bond orders for each atom
           total WBO             WBO to atom ...
     1  N   3.004    C    2 1.028    H  445 0.956    H    9 0.946
     2  C   3.982    N    1 1.028    C    5 0.966    H   10 0.957    C    3 0.933
     3  C   3.935    O    4 1.616    N   20 1.301    C    2 0.933
     4  O   1.955    C    3 1.616    N   20 0.188
     5  C   3.990    C    6 0.990    H   12 0.973    H   11 0.972    C    2 0.966
     6  C   3.995    C    8 1.011    C    7 1.010    C    5 0.990    H   13 0.965
     7  C   3.994    C    6 1.010    H   15 0.985    H   14 0.984    H   16 0.983
     8  C   3.995    C    6 1.011    H   17 0.984    H   19 0.983    H   18 0.971
     9  H   0.969    N    1 0.946
    10  H   0.998    C    2 0.957
    11  H   0.997    C    5 0.972
    12  H   0.998    C    5 0.973
    13  H   0.998    C    6 0.965
    14  H   0.997    C    7 0.984
    15  H   0.998    C    7 0.985
    16  H   0.998    C    7 0.983
    17  H   0.998    C    8 0.984
    18  H   0.998    C    8 0.971
    19  H   0.999    C    8 0.983
    20  N   3.463    C    3 1.301    C   21 0.974    H   28 0.911    O    4 0.188
    21  C   3.974    C   22 0.988    N   20 0.974    C   24 0.964    H   29 0.939
    22  C   3.889    O   23 1.855    C   21 0.988    H  446 0.954
    23  O   2.019    C   22 1.855
    24  C   3.981    H   31 0.967    C   21 0.964    C   25 0.956    H   30 0.941    O   26 0.054
    25  C   3.948    O   26 1.619    N   27 1.352    C   24 0.956
    26  O   1.927    C   25 1.619    N   27 0.203    C   24 0.054
    27  N   3.431    C   25 1.352    H   32 0.924    H   33 0.905    O   26 0.203
    28  H   0.945    N   20 0.911
    29  H   0.991    C   21 0.939
    30  H   0.986    C   24 0.941
    31  H   0.991    C   24 0.967
    32  H   0.952    N   27 0.924
    33  H   0.947    N   27 0.905
    34  N   2.992    C   35 1.011    H  447 0.957    H   39 0.954
    35  C   3.982    N   34 1.011    C   38 0.992    H   40 0.963    C   36 0.938
    36  C   3.931    O   37 1.612    N   44 1.297    C   35 0.938
    37  O   1.950    C   36 1.612    N   44 0.195
    38  C   3.989    C   35 0.992    H   41 0.984    H   43 0.983    H   42 0.979
    39  H   0.972    N   34 0.954
    40  H   0.998    C   35 0.963
    41  H   0.998    C   38 0.984
    42  H   0.994    C   38 0.979
    43  H   0.996    C   38 0.983
    44  N   3.465    C   36 1.297    C   45 0.985    H   52 0.892    O   37 0.195
    45  C   3.969    N   44 0.985    C   48 0.977    C   46 0.962    H   53 0.935
    46  C   3.937    O   47 1.621    N   63 1.266    C   45 0.962
    47  O   1.955    C   46 1.621    N   63 0.192
    48  C   3.980    C   49 0.979    C   45 0.977    H   55 0.968    H   54 0.968
    49  C   3.988    C   50 1.012    C   51 1.009    C   48 0.979    H   56 0.963
    50  C   3.991    C   49 1.012    H   59 0.982    H   58 0.979    H   57 0.976
    51  C   3.993    C   49 1.009    H   61 0.985    H   60 0.981    H   62 0.981
    52  H   0.942    N   44 0.892
    53  H   0.994    C   45 0.935
    54  H   0.996    C   48 0.968
    55  H   0.996    C   48 0.968
    56  H   0.996    C   49 0.963
    57  H   0.995    C   50 0.976
    58  H   0.997    C   50 0.979
    59  H   0.997    C   50 0.982
    60  H   0.998    C   51 0.981
    61  H   0.999    C   51 0.985
    62  H   0.999    C   51 0.981
    63  N   3.432    C   46 1.266    C   64 0.975    H   72 0.900    O   47 0.192
    64  C   3.969    C   67 0.976    N   63 0.975    H   73 0.950    C   65 0.947
    65  C   3.942    O   66 1.562    N   78 1.351    C   64 0.947
    66  O   1.911    C   65 1.562    N   78 0.187
    67  C   3.987    C   68 1.006    C   64 0.976    H   74 0.972    H   75 0.970
    68  C   3.989    C   67 1.006    H   76 0.968    H   77 0.956    C   69 0.944
    69  C   3.938    O   70 1.499    O   71 1.472    C   68 0.944
    70  O   1.785    C   69 1.499    O   71 0.216
    71  O   1.756    C   69 1.472    O   70 0.216
    72  H   0.947    N   63 0.900
    73  H   0.996    C   64 0.950
    74  H   0.997    C   67 0.972
    75  H   0.998    C   67 0.970
    76  H   0.999    C   68 0.968
    77  H   0.997    C   68 0.956
    78  N   3.482    C   65 1.351    C   79 0.950    H   86 0.916    O   66 0.187
    79  C   3.949    C   82 0.980    H   87 0.952    C   80 0.951    N   78 0.950
    80  C   3.943    O   81 1.582    N   97 1.327    C   79 0.951
    81  O   1.909    C   80 1.582    N   97 0.192
    82  C   3.974    C   79 0.980    C   83 0.975    H   88 0.971    H   89 0.970
    83  C   3.987    C   85 1.012    C   84 1.012    C   82 0.975    H   90 0.968
    84  C   3.993    C   83 1.012    H   92 0.984    H   93 0.984    H   91 0.977
    85  C   3.991    C   83 1.012    H   95 0.984    H   96 0.984    H   94 0.980
    86  H   0.952    N   78 0.916
    87  H   0.994    C   79 0.952
    88  H   0.994    C   82 0.971
    89  H   0.996    C   82 0.970
    90  H   0.999    C   83 0.968
    91  H   0.997    C   84 0.977
    92  H   0.999    C   84 0.984
    93  H   0.996    C   84 0.984
    94  H   0.997    C   85 0.980
    95  H   0.995    C   85 0.984
    96  H   0.998    C   85 0.984
    97  N   3.486    C   80 1.327    C   98 0.983    H  106 0.894    O   81 0.192
    98  C   3.960    N   97 0.983    C  101 0.974    C   99 0.941    H  107 0.940
    99  C   3.933    O  100 1.568    N  119 1.326    C   98 0.941
   100  O   1.919    C   99 1.568    N  119 0.182
   101  C   3.982    C  102 1.004    C   98 0.974    H  109 0.970    H  108 0.967
   102  C   3.991    C  101 1.004    C  103 1.002    H  110 0.979    H  111 0.966
   103  C   3.987    C  104 1.013    C  102 1.002    H  113 0.966    H  112 0.966
   104  C   3.936    C  103 1.013    H  115 0.970    H  114 0.968    N  105 0.964
   105  N   3.631    C  104 0.964    H  118 0.914    H  116 0.888    H  117 0.755    O  172 0.057
   106  H   0.949    N   97 0.894
   107  H   0.991    C   98 0.940
   108  H   0.993    C  101 0.967
   109  H   0.995    C  101 0.970
   110  H   1.000    C  102 0.979
   111  H   0.994    C  102 0.966
   112  H   0.995    C  103 0.966
   113  H   0.994    C  103 0.966
   114  H   0.993    C  104 0.968
   115  H   0.994    C  104 0.970
   116  H   0.929    N  105 0.888
   117  H   0.907    N  105 0.755    O  172 0.130
   118  H   0.939    N  105 0.914
   119  N   3.483    C   99 1.326    C  120 0.990    H  127 0.894    O  100 0.182
   120  C   3.970    N  119 0.990    C  123 0.987    H  128 0.946    C  121 0.934
   121  C   3.945    O  122 1.595    N  131 1.316    C  120 0.934
   122  O   1.914    C  121 1.595    N  131 0.187
   123  C   3.982    C  120 0.987    H  129 0.962    H  130 0.957    C  124 0.921    O  125 0.051
   124  C   3.938    O  125 1.541    O  126 1.425    C  123 0.921
   125  O   1.868    C  124 1.541    O  126 0.202    C  123 0.051
   126  O   1.888    C  124 1.425    O  125 0.202    H  178 0.070    H  238 0.067
   127  H   0.949    N  119 0.894
   128  H   0.997    C  120 0.946
   129  H   0.998    C  123 0.962
   130  H   0.997    C  123 0.957
   131  N   3.469    C  121 1.316    C  132 0.976    H  136 0.896    O  122 0.187
   132  C   3.962    C  135 0.998    N  131 0.976    H  137 0.943    C  133 0.928    O  134 0.051
   133  C   3.948    O  134 1.642    N  141 1.301    C  132 0.928
   134  O   1.953    C  133 1.642    N  141 0.195    C  132 0.051
   135  C   3.984    C  132 0.998    H  140 0.982    H  139 0.977    H  138 0.976
   136  H   0.951    N  131 0.896
   137  H   0.998    C  132 0.943
   138  H   0.993    C  135 0.976
   139  H   0.995    C  135 0.977
   140  H   0.996    C  135 0.982
   141  N   3.457    C  133 1.301    C  142 0.947    H  150 0.921    O  134 0.195
   142  C   3.953    C  145 0.990    H  151 0.954    N  141 0.947    C  143 0.931    O  144 0.052
   143  C   3.950    O  144 1.654    N  158 1.294    C  142 0.931
   144  O   1.977    C  143 1.654    N  158 0.203    C  142 0.052
   145  C   3.987    C  146 0.998    C  142 0.990    H  153 0.970    H  152 0.952
   146  C   3.991    C  145 0.998    C  147 0.979    H  154 0.969    H  155 0.939
   147  C   3.951    O  148 1.614    N  149 1.322    C  146 0.979
   148  O   1.938    C  147 1.614    N  149 0.193
   149  N   3.401    C  147 1.322    H  156 0.932    H  157 0.890    O  148 0.193
   150  H   0.962    N  141 0.921
   151  H   0.995    C  142 0.954
   152  H   0.995    C  145 0.952
   153  H   0.997    C  145 0.970
   154  H   0.997    C  146 0.969
   155  H   0.993    C  146 0.939
   156  H   0.958    N  149 0.932
   157  H   0.938    N  149 0.890
   158  N   3.462    C  143 1.294    C  159 0.972    H  163 0.898    O  144 0.203
   159  C   3.964    C  162 1.007    N  158 0.972    H  164 0.954    C  160 0.921
   160  C   3.941    O  161 1.632    N  168 1.299    C  159 0.921
   161  O   1.986    C  160 1.632    N  168 0.194
   162  C   3.980    C  159 1.007    H  165 0.983    H  167 0.981    H  166 0.960
   163  H   0.954    N  158 0.898
   164  H   0.999    C  159 0.954
   165  H   0.997    C  162 0.983
   166  H   0.991    C  162 0.960
   167  H   0.995    C  162 0.981
   168  N   3.465    C  160 1.299    C  169 0.981    H  173 0.928    O  161 0.194
   169  C   3.947    N  168 0.981    H  174 0.963    H  175 0.941    C  170 0.930
   170  C   3.945    O  171 1.515    O  172 1.461    C  169 0.930
   171  O   1.833    C  170 1.515    O  172 0.218
   172  O   1.946    C  170 1.461    O  171 0.218    H  117 0.130    N  105 0.057
   173  H   0.964    N  168 0.928
   174  H   0.998    C  169 0.963
   175  H   0.996    C  169 0.941
   176  O   1.828    H  177 0.889    H  178 0.829
   177  H   0.891    O  176 0.889
   178  H   0.904    O  176 0.829    O  126 0.070
   179  O   1.816    H  181 0.897    H  180 0.884
   180  H   0.916    O  179 0.884
   181  H   0.910    O  179 0.897
   182  O   1.804    H  184 0.895    H  183 0.894
   183  H   0.895    O  182 0.894
   184  H   0.912    O  182 0.895
   185  O   1.803    H  186 0.900    H  187 0.894
   186  H   0.914    O  185 0.900
   187  H   0.895    O  185 0.894
   188  O   1.802    H  190 0.887    H  189 0.864
   189  H   0.907    O  188 0.864
   190  H   0.892    O  188 0.887
   191  O   1.835    H  192 0.901    H  193 0.849
   192  H   0.921    O  191 0.901
   193  H   0.906    O  191 0.849
   194  O   1.841    H  196 0.897    H  195 0.858
   195  H   0.902    O  194 0.858
   196  H   0.902    O  194 0.897
   197  O   1.802    H  198 0.900    H  199 0.899
   198  H   0.901    O  197 0.900
   199  H   0.901    O  197 0.899
   200  O   1.835    H  202 0.899    H  201 0.807
   201  H   0.897    O  200 0.807    O  284 0.080
   202  H   0.912    O  200 0.899
   203  O   1.807    H  204 0.898    H  205 0.890
   204  H   0.902    O  203 0.898
   205  H   0.915    O  203 0.890
   206  O   1.785    H  208 0.893    H  207 0.867
   207  H   0.907    O  206 0.867
   208  H   0.893    O  206 0.893
   209  O   1.830    H  210 0.904    H  211 0.893
   210  H   0.913    O  209 0.904
   211  H   0.903    O  209 0.893
   212  O   1.790    H  214 0.897    H  213 0.853
   213  H   0.905    O  212 0.853
   214  H   0.907    O  212 0.897
   215  N   2.992    C  216 1.011    H  448 0.956    H  226 0.953
   216  C   3.985    N  215 1.011    C  217 0.986    C  219 0.958    H  227 0.957    O  218 0.054
   217  C   3.891    O  218 1.872    C  216 0.986    H  449 0.954
   218  O   2.037    C  217 1.872    C  216 0.054
   219  C   3.988    C  220 1.002    H  229 0.974    H  228 0.967    C  216 0.958
   220  C   3.985    C  221 1.003    C  219 1.002    H  231 0.970    H  230 0.969
   221  C   3.948    C  220 1.003    N  222 0.966    H  233 0.962    H  232 0.961
   222  N   3.435    C  223 1.315    C  221 0.966    H  234 0.871    N  225 0.107    N  224 0.097
   223  C   3.974    N  225 1.329    N  222 1.315    N  224 1.303
   224  N   3.380    C  223 1.303    H  235 0.915    H  236 0.889    N  225 0.102    N  222 0.097
   225  N   3.398    C  223 1.329    H  237 0.906    H  238 0.858    N  222 0.107    N  224 0.102
   226  H   0.972    N  215 0.953
   227  H   0.997    C  216 0.957
   228  H   0.995    C  219 0.967
   229  H   0.995    C  219 0.974
   230  H   0.993    C  220 0.969
   231  H   0.994    C  220 0.970
   232  H   0.992    C  221 0.961
   233  H   0.994    C  221 0.962
   234  H   0.941    N  222 0.871
   235  H   0.946    N  224 0.915
   236  H   0.952    N  224 0.889
   237  H   0.948    N  225 0.906
   238  H   0.946    N  225 0.858    O  126 0.067
   239  N   2.979    C  240 0.995    H  247 0.959    H  450 0.958
   240  C   3.985    N  239 0.995    C  243 0.983    H  248 0.965    C  241 0.954
   241  C   3.946    O  242 1.603    N  256 1.306    C  240 0.954
   242  O   1.919    C  241 1.603    N  256 0.196
   243  C   3.993    C  244 1.012    C  240 0.983    H  249 0.973    H  250 0.963
   244  C   3.984    C  243 1.012    S  245 0.998    H  252 0.970    H  251 0.967
   245  S   2.089    C  246 1.006    C  244 0.998
   246  C   3.975    S  245 1.006    H  255 0.982    H  254 0.979    H  253 0.975
   247  H   0.975    N  239 0.959
   248  H   0.998    C  240 0.965
   249  H   0.997    C  243 0.973
   250  H   0.996    C  243 0.963
   251  H   0.998    C  244 0.967
   252  H   0.997    C  244 0.970
   253  H   0.995    C  246 0.975
   254  H   0.996    C  246 0.979
   255  H   0.997    C  246 0.982
   256  N   3.490    C  241 1.306    C  257 1.010    H  267 0.894    O  242 0.196
   257  C   3.969    N  256 1.010    C  258 0.965    C  260 0.949    H  268 0.932    O  259 0.059
   258  C   3.895    O  259 1.892    C  257 0.965    H  451 0.954
   259  O   2.035    C  258 1.892    C  257 0.059
   260  C   3.982    C  261 0.999    H  269 0.970    H  270 0.961    C  257 0.949
   261  C   3.987    C  263 1.466    C  262 1.371    C  260 0.999    C  266 0.104
   262  C   3.992    C  264 1.475    C  261 1.371    H  271 0.966    C  265 0.123
   263  C   3.990    C  261 1.466    C  265 1.395    H  272 0.966    C  264 0.104
   264  C   3.992    C  262 1.475    C  266 1.417    H  273 0.966    C  263 0.104
   265  C   3.988    C  266 1.468    C  263 1.395    H  274 0.957    C  262 0.123
   266  C   3.992    C  265 1.468    C  264 1.417    H  275 0.965    C  261 0.104
   267  H   0.944    N  256 0.894
   268  H   0.992    C  257 0.932
   269  H   0.994    C  260 0.970
   270  H   0.994    C  260 0.961
   271  H   0.999    C  262 0.966
   272  H   0.998    C  263 0.966
   273  H   0.997    C  264 0.966
   274  H   0.998    C  265 0.957
   275  H   0.997    C  266 0.965
   276  N   2.982    C  277 1.006    H  452 0.962    H  285 0.953
   277  C   3.983    N  276 1.006    C  280 0.969    H  286 0.967    C  278 0.944
   278  C   3.948    O  279 1.602    N  291 1.317    C  277 0.944
   279  O   1.947    C  278 1.602    N  291 0.191
   280  C   3.992    C  281 1.014    H  287 0.974    C  277 0.969    H  288 0.959
   281  C   3.987    C  280 1.014    H  289 0.967    H  290 0.961    C  282 0.926    O  283 0.053
   282  C   3.932    O  283 1.542    O  284 1.429    C  281 0.926
   283  O   1.828    C  282 1.542    O  284 0.207    C  281 0.053
   284  O   1.820    C  282 1.429    O  283 0.207    H  201 0.080
   285  H   0.971    N  276 0.953
   286  H   0.999    C  277 0.967
   287  H   0.998    C  280 0.974
   288  H   0.996    C  280 0.959
   289  H   0.999    C  281 0.967
   290  H   1.000    C  281 0.961
   291  N   3.487    C  278 1.317    C  292 0.987    H  299 0.911    O  279 0.191
   292  C   3.957    N  291 0.987    C  293 0.972    C  295 0.954    H  300 0.940    O  294 0.057
   293  C   3.901    O  294 1.892    C  292 0.972    H  453 0.953
   294  O   2.037    C  293 1.892    C  292 0.057
   295  C   3.977    C  296 0.986    H  301 0.971    H  302 0.970    C  292 0.954
   296  C   3.992    C  298 1.011    C  297 1.009    C  295 0.986    H  303 0.957
   297  C   3.992    C  296 1.009    H  305 0.985    H  304 0.983    H  306 0.982
   298  C   3.994    C  296 1.011    H  307 0.980    H  309 0.978    H  308 0.970
   299  H   0.951    N  291 0.911
   300  H   0.993    C  292 0.940
   301  H   0.995    C  295 0.971
   302  H   0.994    C  295 0.970
   303  H   0.997    C  296 0.957
   304  H   0.996    C  297 0.983
   305  H   0.999    C  297 0.985
   306  H   0.997    C  297 0.982
   307  H   0.997    C  298 0.980
   308  H   0.997    C  298 0.970
   309  H   0.999    C  298 0.978
   310  N   3.001    C  311 1.020    H  319 0.959    H  454 0.953
   311  C   3.985    N  310 1.020    C  314 0.963    H  320 0.962    C  312 0.945
   312  C   3.945    O  313 1.601    N  325 1.311    C  311 0.945
   313  O   1.937    C  312 1.601    N  325 0.194
   314  C   3.994    C  315 1.012    H  321 0.973    H  322 0.972    C  311 0.963
   315  C   3.994    C  314 1.012    H  323 0.971    H  324 0.964    C  316 0.922    O  318 0.052
   316  C   3.927    O  318 1.536    O  317 1.433    C  315 0.922
   317  O   1.831    C  316 1.433    O  318 0.207
   318  O   1.820    C  316 1.536    O  317 0.207    C  315 0.052
   319  H   0.979    N  310 0.959
   320  H   0.998    C  311 0.962
   321  H   0.999    C  314 0.973
   322  H   0.999    C  314 0.972
   323  H   0.999    C  315 0.971
   324  H   0.999    C  315 0.964
   325  N   3.473    C  312 1.311    C  326 0.977    H  330 0.892    O  313 0.194
   326  C   3.966    C  329 0.984    N  325 0.977    C  327 0.966    H  331 0.950    O  328 0.056
   327  C   3.898    O  328 1.909    C  326 0.966    H  455 0.952
   328  O   2.049    C  327 1.909    C  326 0.056
   329  C   3.982    C  326 0.984    H  332 0.981    H  334 0.980    H  333 0.972
   330  H   0.947    N  325 0.892
   331  H   0.996    C  326 0.950
   332  H   0.996    C  329 0.981
   333  H   0.995    C  329 0.972
   334  H   0.993    C  329 0.980
   335  N   2.987    C  336 1.001    H  456 0.957    H  343 0.934
   336  C   3.986    N  335 1.001    C  337 0.993    C  339 0.965    H  344 0.958    O  338 0.051
   337  C   3.889    O  338 1.863    C  336 0.993    H  457 0.955
   338  O   2.012    C  337 1.863    C  336 0.051
   339  C   3.988    C  340 0.979    H  345 0.973    H  346 0.972    C  336 0.965
   340  C   3.994    C  341 1.013    C  342 1.012    C  339 0.979    H  347 0.967
   341  C   3.995    C  340 1.013    H  350 0.983    H  349 0.982    H  348 0.978
   342  C   3.995    C  340 1.012    H  353 0.982    H  352 0.981    H  351 0.979
   343  H   0.971    N  335 0.934
   344  H   0.997    C  336 0.958
   345  H   0.998    C  339 0.973
   346  H   0.997    C  339 0.972
   347  H   0.999    C  340 0.967
   348  H   0.998    C  341 0.978
   349  H   0.997    C  341 0.982
   350  H   0.998    C  341 0.983
   351  H   0.998    C  342 0.979
   352  H   0.998    C  342 0.981
   353  H   0.999    C  342 0.982
   354  N   2.987    C  355 0.985    H  363 0.953    H  458 0.952
   355  C   3.983    N  354 0.985    C  356 0.985    C  358 0.976    H  364 0.962    O  357 0.052
   356  C   3.895    O  357 1.901    C  355 0.985    H  459 0.952
   357  O   2.035    C  356 1.901    C  355 0.052
   358  C   3.995    C  359 0.999    C  355 0.976    H  366 0.973    H  365 0.972
   359  C   3.991    C  358 0.999    C  360 0.974    H  367 0.967    H  368 0.937    O  361 0.051
   360  C   3.938    O  361 1.645    N  362 1.283    C  359 0.974
   361  O   1.956    C  360 1.645    N  362 0.190    C  359 0.051
   362  N   3.374    C  360 1.283    H  369 0.927    H  370 0.919    O  361 0.190
   363  H   0.972    N  354 0.953
   364  H   0.996    C  355 0.962
   365  H   0.997    C  358 0.972
   366  H   0.998    C  358 0.973
   367  H   0.996    C  359 0.967
   368  H   0.992    C  359 0.937
   369  H   0.953    N  362 0.927
   370  H   0.956    N  362 0.919
   371  N   2.978    C  372 0.994    H  380 0.955    H  460 0.950
   372  C   3.984    N  371 0.994    C  375 0.987    H  381 0.964    C  373 0.940    O  374 0.052
   373  C   3.943    O  374 1.655    N  388 1.285    C  372 0.940
   374  O   1.971    C  373 1.655    N  388 0.199    C  372 0.052
   375  C   3.996    C  376 1.000    C  372 0.987    H  383 0.972    H  382 0.971
   376  C   3.993    C  375 1.000    C  377 0.975    H  384 0.967    H  385 0.948    O  378 0.050
   377  C   3.943    O  378 1.636    N  379 1.302    C  376 0.975
   378  O   1.930    C  377 1.636    N  379 0.192    C  376 0.050
   379  N   3.386    C  377 1.302    H  386 0.938    H  387 0.911    O  378 0.192
   380  H   0.974    N  371 0.955
   381  H   0.996    C  372 0.964
   382  H   0.999    C  375 0.971
   383  H   1.000    C  375 0.972
   384  H   0.994    C  376 0.967
   385  H   0.993    C  376 0.948
   386  H   0.960    N  379 0.938
   387  H   0.944    N  379 0.911
   388  N   3.463    C  373 1.285    C  389 0.974    H  393 0.926    O  374 0.199
   389  C   3.965    C  392 1.009    N  388 0.974    H  394 0.953    C  390 0.919    O  391 0.052
   390  C   3.933    O  391 1.627    N  398 1.301    C  389 0.919
   391  O   1.987    C  390 1.627    N  398 0.196    C  389 0.052
   392  C   3.984    C  389 1.009    H  397 0.982    H  395 0.981    H  396 0.980
   393  H   0.960    N  388 0.926
   394  H   0.995    C  389 0.953
   395  H   0.996    C  392 0.981
   396  H   0.993    C  392 0.980
   397  H   0.996    C  392 0.982
   398  N   3.469    C  390 1.301    C  399 0.987    H  403 0.929    O  391 0.196
   399  C   3.950    N  398 0.987    H  404 0.964    H  405 0.947    C  400 0.915    O  402 0.053    O  401 0.051
   400  C   3.942    O  402 1.506    O  401 1.496    C  399 0.915
   401  O   1.795    C  400 1.496    O  402 0.222    C  399 0.051
   402  O   1.807    C  400 1.506    O  401 0.222    C  399 0.053
   403  H   0.958    N  398 0.929
   404  H   0.999    C  399 0.964
   405  H   0.999    C  399 0.947
   406  N   2.995    C  407 1.022    H  414 0.954    H  461 0.952
   407  C   3.988    N  406 1.022    C  410 0.984    H  415 0.956    C  408 0.936
   408  C   3.935    O  409 1.618    N  418 1.282    C  407 0.936
   409  O   1.915    C  408 1.618    N  418 0.181
   410  C   3.985    C  407 0.984    H  416 0.968    H  417 0.962    C  411 0.910    O  412 0.053
   411  C   3.939    O  412 1.524    O  413 1.477    C  410 0.910
   412  O   1.824    C  411 1.524    O  413 0.219    C  410 0.053
   413  O   1.765    C  411 1.477    O  412 0.219
   414  H   0.974    N  406 0.954
   415  H   0.999    C  407 0.956
   416  H   0.999    C  410 0.968
   417  H   1.000    C  410 0.962
   418  N   3.443    C  408 1.282    C  419 0.981    H  423 0.916    O  409 0.181
   419  C   3.966    C  422 0.996    N  418 0.981    H  424 0.942    C  420 0.929    O  421 0.050
   420  C   3.940    O  421 1.616    N  428 1.306    C  419 0.929
   421  O   1.980    C  420 1.616    N  428 0.185    C  419 0.050
   422  C   3.978    C  419 0.996    H  427 0.978    H  426 0.975    H  425 0.970
   423  H   0.951    N  418 0.916
   424  H   0.997    C  419 0.942
   425  H   0.992    C  422 0.970
   426  H   0.994    C  422 0.975
   427  H   0.994    C  422 0.978
   428  N   3.463    C  420 1.306    C  429 0.943    H  437 0.919    O  421 0.185
   429  C   3.953    C  432 0.980    C  430 0.970    H  438 0.952    N  428 0.943    O  431 0.052
   430  C   3.896    O  431 1.918    C  429 0.970    H  462 0.949
   431  O   2.053    C  430 1.918    C  429 0.052
   432  C   3.982    C  433 0.999    C  429 0.980    H  440 0.968    H  439 0.967
   433  C   3.991    C  432 0.999    C  434 0.972    H  441 0.968    H  442 0.947
   434  C   3.951    O  435 1.656    N  436 1.294    C  433 0.972
   435  O   1.972    C  434 1.656    N  436 0.196
   436  N   3.371    C  434 1.294    H  443 0.925    H  444 0.920    O  435 0.196
   437  H   0.952    N  428 0.919
   438  H   0.994    C  429 0.952
   439  H   0.992    C  432 0.967
   440  H   0.993    C  432 0.968
   441  H   0.997    C  433 0.968
   442  H   0.993    C  433 0.947
   443  H   0.946    N  436 0.925
   444  H   0.942    N  436 0.920
   445  H   0.968    N    1 0.956
   446  H   0.992    C   22 0.954
   447  H   0.966    N   34 0.957
   448  H   0.967    N  215 0.956
   449  H   0.992    C  217 0.954
   450  H   0.966    N  239 0.958
   451  H   0.994    C  258 0.954
   452  H   0.972    N  276 0.962
   453  H   0.994    C  293 0.953
   454  H   0.962    N  310 0.953
   455  H   0.992    C  327 0.952
   456  H   0.967    N  335 0.957
   457  H   0.993    C  337 0.955
   458  H   0.967    N  354 0.952
   459  H   0.994    C  356 0.952
   460  H   0.962    N  371 0.950
   461  H   0.963    N  406 0.952
   462  H   0.993    C  430 0.949
 
molecular dipole:
                 x           y           z       tot (Debye)
 q only:        3.994     -61.183      67.917
   full:        1.566     -60.843      65.119     226.560
molecular quadrupole (traceless):
                xx          xy          yy          xz          yz          zz
 q only:      -58.278     169.844      76.029    -334.340    1371.566     -17.751
  q+dip:      -29.272      55.545      -1.524    -300.549    1284.634      30.797
   full:      -28.499      52.940      -1.415    -300.797    1280.771      29.914
speedup  8.94
cpu  time for grad   37.22 s
wall time for grad    4.16 s

SCC energy    :    -742.0236299
rep           :       8.3088746
ES            :       3.6851694
AES           :      -0.1664817
AXC           :       0.2027907
disp          :      -0.5836470
XB            :       0.0000000
fix           :       0.0000000
Gborn         :       0.0000000
Gsasa         :       0.0000000
Ghb           :       0.0000000
Gshift        :       0.0000000
Gsolv         :      -1.2785538     -802.30
Etot ala COSMO:    -742.0236299
grad norm     :       0.7493140
total E       :    -733.6534088
atomizationE  :     126.2779804    79240.63
(atE without considering molecular charge,
 total energy contains solvation terms)
H-L gap (eV)  :          1.0831

------------------------------------------------------------------------
 * finished run on 2019/02/16 at 08:09:37.376     
------------------------------------------------------------------------
 total:
 * wall-time:     0 d,  0 h,  0 min,  4.654 sec
 *  cpu-time:     0 d,  0 h,  0 min, 42.515 sec
 * ratio c/w:     9.135 speedup
 SCF:
 * wall-time:     0 d,  0 h,  0 min,  4.391 sec
 *  cpu-time:     0 d,  0 h,  0 min, 39.861 sec
 * ratio c/w:     9.077 speedup

