      -----------------------------------------------------------      
     |                   =====================                   |     
     |                           x T B                           |     
     |                   =====================                   |     
     |                         S. Grimme                         |     
     |          Mulliken Center for Theoretical Chemistry        |     
     |                    University of Bonn                     |     
     |                 Version 6.0.1 (SAW181210)                 |     
      -----------------------------------------------------------      

   This program is distributed in the hope that it will be useful,
   but WITHOUT ANY WARRANTY; without even the implied warranty of
   MERCHANTABILITY or FITNESS FOR A PARTICULAR PURPOSE.
   
   FOR NON-COMMERCIAL, ACADEMIA USE ONLY.
   
   Cite this work as:
   S. Grimme, C. Bannwarth, P. Shushkov, J. Comput. Theory Chem., 2017,
   13, 1989-2009.
   C. Bannwarth, S. Ehlert and S. Grimme., ChemRxiv, 2018, preprint.
   http://doi.org/10.26434/chemrxiv.7246238.v1
   
   for sTDA-xTB:
   S. Grimme and C. Bannwarth, J. Chem. Phys., 2016, 145, 054103.
   
   in the mass-spec context:
   V. Asgeirsson, C. Bauer and S. Grimme, Chem. Sci., 2017, 8, 4879.
   
   if GBSA is used:
   P. Shushkov, F. März and S. Grimme, unpublished.
   
   for ANC optimizer:
   S. Grimme, unpublished.
   Rational Function algorithm used in ANCopt:
   F. Eckert, P. Pulay, H.-J. Werner, J. Comput. Chem., 1997, 18, 1473.
   
   with help from (in alphabetical order)
   C. Bannwarth, F. Bohle, G. Brandenburg, E. Caldeweyher, M. Checinski,
   S. Dohm, S. Ehlert, S. Ehrlich, F. März, H. Neugebauer, J. Pisarek,
   P. Pracht, P. Shushkov, and S. Spicher.
   
 * started run on 2019/02/16 at 08:10:20.914     
========================================================================
 # omp threads = 12
========================================================================
number of atoms            : 61
number of electrons        : 152
charge                     : 2
spin                       : .0
first test random number   : .8052

########################################################################
# WARNING! Please study the warnings concerning your input carefully
#  - Process number higher than OMP_NUM_THREADS, I hope you know what you are doing.
########################################################################

           ------------------------------------------------- 
          |                 G F N 2 - x T B                 |
          | Geometry, Frequencies, Noncovalent interactions |
          |            JCTC 2018 parametrisation            |
           ------------------------------------------------- 
 
      method parameters     
 k(s)        :  1.8500
 k(p)        :  2.2300
 k(d)        :  2.2300
 k(f)        :  2.0000
 kEN (H0ij)  : -2.0000
 D4 a1       :  0.5200
 D4 a2       :  5.0000
 D4 s6       :  1.0000
 D4 s8       :  2.7000
 D4 s9       :  5.0000
 alphaj      :  2.0000

 Solvent             : h2o
 Using internal parameter file: .param_gbsa2_h2o
 Gsolv ref. state (COSMO-RS): gsolv [1 M gas/solution]
 temperature (mdtemp)       :    298.150000000000     
 dielectric constant        :    80.2000000000000     
 rho                        :    1.00000000000000     
 mass                       :    18.0000000000000     
 surface tension            :    15.5689454083859     
 probe radius               :   0.975313790000000     
 vdW radii scaling          :    1.00000000000000     
 Gshift (Eh)                :   1.857443126794793E-003
 c1                         :    1.55243817000000     
 soset                      :   0.130326360000000     
 HB correction              :  T

            Z     q(EN)     CN     RAES       Cart. coordinates
     1  N   5.0   -0.15    3.18    1.95    19.05511    49.75248    21.81472
     2  C   4.0    0.05    4.19    3.98    18.77885    47.01005    22.22027
     3  C   4.0    0.12    3.19    3.04    16.10572    46.03396    21.67806
     4  O   6.0   -0.19    1.12    1.80    15.90829    44.05662    20.42910
     5  H   1.0    0.12    1.04    1.43    19.60909    50.81561    23.31765
     6  H   1.0    0.08    1.05    1.44    20.00768    46.02163    20.87994
     7  C   4.0   -0.03    4.26    4.11    19.48539    46.50275    24.99049
     8  C   4.0   -0.03    4.15    3.91    19.30399    43.77078    25.93172
     9  C   4.0    0.01    4.19    3.98    21.87283    42.61725    26.63233
    10  N   5.0   -0.12    3.39    2.02    22.97841    41.23350    24.53613
    11  C   4.0    0.13    3.34    3.06    22.89746    38.75132    24.18841
    12  N   5.0   -0.14    3.25    1.97    22.11042    37.17368    25.96025
    13  N   5.0   -0.13    3.25    1.97    23.90858    37.78529    22.07720
    14  H   1.0    0.06    1.03    1.43    21.40833    47.18775    25.27709
    15  H   1.0    0.06    1.03    1.43    18.21235    47.65495    26.13374
    16  H   1.0    0.06    1.03    1.43    18.10867    43.70758    27.60241
    17  H   1.0    0.08    1.03    1.43    18.35735    42.56934    24.54742
    18  H   1.0    0.07    1.03    1.43    23.20236    44.09737    27.17510
    19  H   1.0    0.06    1.03    1.43    21.64131    41.35985    28.24100
    20  H   1.0    0.11    1.07    1.44    23.61278    42.31615    23.09005
    21  H   1.0    0.10    1.03    1.43    21.32738    37.76534    27.61638
    22  H   1.0    0.13    1.04    1.43    21.92087    35.32689    25.56300
    23  H   1.0    0.13    1.03    1.43    24.44397    38.91362    20.63973
    24  H   1.0    0.14    1.03    1.43    23.78244    35.92255    21.72202
    25  O   6.0   -0.29    1.95    1.82    20.47020    48.28232    31.47675
    26  H   1.0    0.15    0.97    1.43    20.25365    50.08111    31.41433
    27  H   1.0    0.15    0.99    1.43    18.77984    47.56630    31.51858
    28  O   6.0   -0.29    1.95    1.82    15.63205    45.59944    31.64061
    29  H   1.0    0.15    0.97    1.43    15.15077    44.54873    30.22841
    30  H   1.0    0.17    0.97    1.43    14.10634    46.48441    32.06400
    31  O   6.0   -0.24    1.94    1.82    21.72173    53.09759    25.77008
    32  H   1.0    0.16    0.97    1.43    23.14849    52.05094    26.18887
    33  H   1.0    0.17    0.97    1.43    21.16504    53.84022    27.32993
    34  N   5.0   -0.15    3.18    1.95    19.05511    36.23006    40.92418
    35  C   4.0    0.05    4.19    3.98    18.77885    38.97248    40.51863
    36  C   4.0    0.12    3.19    3.04    16.10572    39.94857    41.06085
    37  O   6.0   -0.19    1.12    1.80    15.90829    41.92591    42.30980
    38  H   1.0    0.12    1.02    1.43    19.60909    35.16692    39.42125
    39  H   1.0    0.08    1.05    1.44    20.00768    39.96090    41.85897
    40  C   4.0   -0.03    4.26    4.11    19.48539    39.47979    37.74841
    41  C   4.0   -0.03    4.15    3.91    19.30399    42.21175    36.80718
    42  C   4.0    0.01    4.19    3.98    21.87283    43.36528    36.10657
    43  N   5.0   -0.12    3.39    2.02    22.97841    44.74903    38.20278
    44  C   4.0    0.13    3.34    3.06    22.89746    47.23121    38.55049
    45  N   5.0   -0.15    3.26    1.97    22.11042    48.80885    36.77865
    46  N   5.0   -0.13    3.25    1.97    23.90858    48.19724    40.66170
    47  H   1.0    0.06    1.03    1.43    21.40833    38.79479    37.46181
    48  H   1.0    0.07    1.03    1.43    18.21235    38.32758    36.60516
    49  H   1.0    0.06    1.03    1.43    18.10867    42.27495    35.13650
    50  H   1.0    0.08    1.03    1.43    18.35735    43.41320    38.19148
    51  H   1.0    0.07    1.03    1.43    23.20236    41.88516    35.56380
    52  H   1.0    0.06    1.03    1.43    21.64131    44.62268    34.49790
    53  H   1.0    0.11    1.07    1.44    23.61278    43.66638    39.64885
    54  H   1.0    0.11    1.05    1.44    21.32738    48.21719    35.12253
    55  H   1.0    0.13    1.04    1.43    21.92087    50.65564    37.17590
    56  H   1.0    0.13    1.03    1.43    24.44397    47.06891    42.09918
    57  H   1.0    0.13    1.03    1.43    23.78244    50.05998    41.01688
    58  H   1.0    0.14    1.07    1.44    20.22099    50.03343    20.60875
    59  H   1.0    0.10    1.04    1.43    14.60434    46.98284    22.32347
    60  H   1.0    0.14    1.07    1.44    20.22099    35.94910    42.13015
    61  H   1.0    0.10    1.04    1.43    14.60434    38.99969    40.41544

  Z AO/shell   Hii/eV     exponent
  1     Wed Apr 25 08:07:45 CEST 2018   EN: 2.200 GM2: 0.406  GM3: 0.0800  RAES: 1.40
     1s    -10.707211    1.230000
  6     Wed Apr 25 08:07:45 CEST 2018   EN: 2.550 GM2: 0.538  GM3: 0.1500  RAES: 3.00
     2s    -13.970922    2.096432
     2p    -10.063292    1.800000
  7     Wed Apr 25 08:07:45 CEST 2018   EN: 3.040 GM2: 0.461  GM3:-0.0640  RAES: 1.90
     2s    -16.686243    2.339881
     2p    -12.523956    2.014332
  8     Wed Apr 25 08:07:45 CEST 2018   EN: 3.440 GM2: 0.452  GM3:-0.0517  RAES: 1.80
     2s    -20.229985    2.439742
     2p    -15.503117    2.137023
 no old-style atom pair restraining (fixing) potential

molecular fragmentation (1/2 indicates fragments):
1111111111111111111111112222222222222222222222222222222221122
# atoms in fragment 1/2:    26    35
 fragment masses (1/2) :      159.21      213.26
CMA distance (Bohr)    :  13.109
constraining FC (au)   :  0.0500
           ------------------------------------------------- 
          |        Self-Consistent Charge Iterations        |
           ------------------------------------------------- 

 Ncao       : 136
 Nao        : 136
 Nshell     : 86
 Nel        : 152
 T(el)      :   500.0
 intcut     :    35.0
 scfconv/Eh :  0.100E-06
   qconv/e  :  0.100E-04
 intneglect :  0.100E-08
 broydamp   :      0.400
 iter      E             dE          RMSdq      gap      omega  full diag
   1    -87.9090990 -0.879091E+02  0.486E+00    3.34       0.0  T
   2    -88.0874839 -0.178385E+00  0.228E+00    1.99       1.0  T
   3    -88.1008832 -0.133993E-01  0.113E+00    2.17       1.0  T
   4    -88.1184595 -0.175763E-01  0.303E-01    1.82       1.0  T
   5    -88.1189978 -0.538301E-03  0.113E-01    1.94       1.0  T
   6    -88.1192601 -0.262321E-03  0.361E-02    1.90       1.0  T
   7    -88.1192698 -0.969411E-05  0.170E-02    1.87       1.0  T
   8    -88.1192718 -0.198928E-05  0.620E-03    1.88       2.1  T
   9    -88.1192723 -0.462872E-06  0.209E-03    1.88       6.1  T
  10    -88.1192723 -0.449215E-07  0.811E-04    1.88      15.8  T
  11    -88.1192723 -0.943693E-08  0.228E-04    1.88      56.1  T
  12    -88.1192723 -0.971852E-09  0.100E-04    1.88     128.0  T
  13    -88.1192723 -0.192230E-09  0.347E-05    1.88     369.1  T
  14    -88.1192723 -0.125340E-10  0.141E-05    1.88     911.2  T
speedup 11.33
cpu  time for SCC    0.93 s
wall time for SCC    0.08 s

   *** convergence criteria satisfied after 14 iterations ***

          eigenvalues
 #    :          64         65         66         67         68         69         70         71
 occ. :        2.000      2.000      2.000      2.000      2.000      2.000      2.000      2.000
 eps  :       -12.209    -12.110    -12.018    -11.999    -11.892    -11.830    -11.804    -11.414
 #    :          72         73         74         75         76         77         78         79
 occ. :        2.000      2.000      2.000      2.000      2.000      0.000      0.000      0.000
 eps  :       -11.392    -11.285    -11.283     -9.996     -9.739     -7.863     -7.815     -6.082
 #    :          80         81         82         83         84         85         86         87
 occ. :        0.000      0.000      0.000      0.000      0.000      0.000      0.000      0.000
 eps  :        -5.933     -1.477     -1.318      0.054      0.171      0.508      0.649      1.034


   #   Z            q   n(s)   n(p)   n(d)      C6AA      α(0)
   1   7 N     -0.411  1.330  4.081  0.000    30.689     8.228
   2   6 C      0.036  1.061  2.902  0.000    19.982     6.368
   3   6 C      0.198  1.096  2.706  0.000    23.782     7.986
   4   8 O     -0.395  1.771  4.624  0.000    21.572     6.227
   5   1 H      0.186  0.814  0.000  0.000     1.181     1.702
   6   1 H      0.049  0.951  0.000  0.000     2.327     2.386
   7   6 C     -0.083  1.064  3.019  0.000    22.084     6.690
   8   6 C     -0.088  1.052  3.035  0.000    22.172     6.704
   9   6 C     -0.035  1.059  2.976  0.000    21.278     6.582
  10   7 N     -0.133  1.208  3.926  0.000    23.890     7.259
  11   6 C      0.235  1.018  2.747  0.000    23.080     7.866
  12   7 N     -0.244  1.227  4.017  0.000    26.371     7.627
  13   7 N     -0.266  1.239  4.027  0.000    26.887     7.701
  14   1 H      0.080  0.920  0.000  0.000     1.978     2.199
  15   1 H      0.072  0.928  0.000  0.000     2.059     2.244
  16   1 H      0.077  0.923  0.000  0.000     2.006     2.215
  17   1 H      0.056  0.944  0.000  0.000     2.250     2.346
  18   1 H      0.105  0.895  0.000  0.000     1.738     2.062
  19   1 H      0.096  0.904  0.000  0.000     1.821     2.110
  20   1 H      0.225  0.775  0.000  0.000     0.989     1.558
  21   1 H      0.254  0.746  0.000  0.000     0.868     1.459
  22   1 H      0.246  0.754  0.000  0.000     0.899     1.485
  23   1 H      0.240  0.760  0.000  0.000     0.925     1.506
  24   1 H      0.244  0.756  0.000  0.000     0.907     1.492
  25   8 O     -0.620  1.753  4.867  0.000    25.668     6.838
  26   1 H      0.310  0.690  0.000  0.000     0.692     1.307
  27   1 H      0.322  0.678  0.000  0.000     0.659     1.275
  28   8 O     -0.630  1.754  4.876  0.000    25.915     6.871
  29   1 H      0.317  0.683  0.000  0.000     0.673     1.289
  30   1 H      0.329  0.671  0.000  0.000     0.640     1.257
  31   8 O     -0.648  1.775  4.873  0.000    26.365     6.930
  32   1 H      0.331  0.669  0.000  0.000     0.634     1.251
  33   1 H      0.327  0.673  0.000  0.000     0.644     1.260
  34   7 N     -0.405  1.329  4.076  0.000    30.505     8.203
  35   6 C      0.036  1.062  2.902  0.000    19.986     6.369
  36   6 C      0.199  1.095  2.706  0.000    23.755     7.982
  37   8 O     -0.389  1.770  4.619  0.000    21.465     6.212
  38   1 H      0.172  0.828  0.000  0.000     1.261     1.759
  39   1 H      0.054  0.946  0.000  0.000     2.267     2.355
  40   6 C     -0.082  1.064  3.019  0.000    22.067     6.687
  41   6 C     -0.089  1.052  3.037  0.000    22.197     6.708
  42   6 C     -0.038  1.059  2.979  0.000    21.335     6.591
  43   7 N     -0.135  1.208  3.927  0.000    23.921     7.264
  44   6 C      0.234  1.019  2.747  0.000    23.098     7.869
  45   7 N     -0.248  1.231  4.016  0.000    26.455     7.639
  46   7 N     -0.270  1.239  4.031  0.000    26.989     7.716
  47   1 H      0.075  0.925  0.000  0.000     2.034     2.230
  48   1 H      0.064  0.936  0.000  0.000     2.152     2.294
  49   1 H      0.082  0.918  0.000  0.000     1.959     2.189
  50   1 H      0.058  0.942  0.000  0.000     2.225     2.333
  51   1 H      0.096  0.904  0.000  0.000     1.821     2.111
  52   1 H      0.110  0.890  0.000  0.000     1.699     2.038
  53   1 H      0.220  0.780  0.000  0.000     1.011     1.575
  54   1 H      0.259  0.741  0.000  0.000     0.850     1.444
  55   1 H      0.239  0.761  0.000  0.000     0.926     1.507
  56   1 H      0.235  0.765  0.000  0.000     0.942     1.520
  57   1 H      0.241  0.759  0.000  0.000     0.917     1.500
  58   1 H      0.172  0.828  0.000  0.000     1.258     1.757
  59   1 H      0.073  0.927  0.000  0.000     2.050     2.239
  60   1 H      0.178  0.822  0.000  0.000     1.223     1.732
  61   1 H      0.074  0.926  0.000  0.000     2.040     2.233

 Mol. C6AA /au·bohr⁶  :      26796.362966
 Mol. C8AA /au·bohr⁸  :     564852.997003
 Mol. α(0) /au        :        244.334944

 
 Wiberg/Mayer (AO) data. WBOs > 0.1 written file <wbo>
 largest (>0.05) Wiberg bond orders for each atom
           total WBO             WBO to atom ...
     1  N   2.984    C    2 1.004    H   58 0.960    H    5 0.933
     2  C   3.981    N    1 1.004    C    3 0.982    H    6 0.963    C    7 0.959    O    4 0.054
     3  C   3.883    O    4 1.879    C    2 0.982    H   59 0.956
     4  O   2.016    C    3 1.879    C    2 0.054
     5  H   0.965    N    1 0.933
     6  H   0.998    C    2 0.963
     7  C   3.984    C    8 1.004    H   15 0.973    H   14 0.963    C    2 0.959
     8  C   3.991    C    7 1.004    C    9 0.995    H   17 0.972    H   16 0.967
     9  C   3.946    C    8 0.995    N   10 0.981    H   19 0.959    H   18 0.958
    10  N   3.477    C   11 1.322    C    9 0.981    H   20 0.919    N   12 0.104    N   13 0.099
    11  C   3.976    N   12 1.328    N   10 1.322    N   13 1.295
    12  N   3.400    C   11 1.328    H   22 0.919    H   21 0.905    N   10 0.104    N   13 0.098
    13  N   3.376    C   11 1.295    H   23 0.923    H   24 0.921    N   10 0.099    N   12 0.098
    14  H   0.993    C    7 0.963
    15  H   0.994    C    7 0.973
    16  H   0.994    C    8 0.967
    17  H   0.997    C    8 0.972
    18  H   0.989    C    9 0.958
    19  H   0.991    C    9 0.959
    20  H   0.950    N   10 0.919
    21  H   0.935    N   12 0.905
    22  H   0.939    N   12 0.919
    23  H   0.943    N   13 0.923
    24  H   0.940    N   13 0.921
    25  O   1.846    H   26 0.903    H   27 0.872
    26  H   0.904    O   25 0.903
    27  H   0.896    O   25 0.872
    28  O   1.821    H   29 0.892    H   30 0.890
    29  H   0.900    O   28 0.892
    30  H   0.892    O   28 0.890
    31  O   1.804    H   33 0.891    H   32 0.889
    32  H   0.890    O   31 0.889
    33  H   0.893    O   31 0.891
    34  N   2.986    C   35 1.002    H   60 0.958    H   38 0.952
    35  C   3.980    N   34 1.002    C   36 0.982    H   39 0.962    C   40 0.961    O   37 0.054
    36  C   3.885    O   37 1.884    C   35 0.982    H   61 0.956
    37  O   2.020    C   36 1.884    C   35 0.054
    38  H   0.970    N   34 0.952
    39  H   0.997    C   35 0.962
    40  C   3.986    C   41 1.004    H   48 0.975    H   47 0.964    C   35 0.961
    41  C   3.990    C   40 1.004    C   42 0.996    H   50 0.972    H   49 0.971
    42  C   3.945    C   41 0.996    N   43 0.982    H   51 0.960    H   52 0.956
    43  N   3.473    C   44 1.317    C   42 0.982    H   53 0.921    N   45 0.106    N   46 0.095
    44  C   3.976    N   45 1.340    N   43 1.317    N   46 1.288
    45  N   3.404    C   44 1.340    H   55 0.922    H   54 0.873    N   43 0.106    N   46 0.099
    46  N   3.369    C   44 1.288    H   56 0.925    H   57 0.922    N   45 0.099    N   43 0.095
    47  H   0.994    C   40 0.964
    48  H   0.996    C   40 0.975
    49  H   0.993    C   41 0.971
    50  H   0.997    C   41 0.972
    51  H   0.991    C   42 0.960
    52  H   0.988    C   42 0.956
    53  H   0.952    N   43 0.921
    54  H   0.933    N   45 0.873
    55  H   0.943    N   45 0.922
    56  H   0.944    N   46 0.925
    57  H   0.942    N   46 0.922
    58  H   0.970    N    1 0.960
    59  H   0.995    C    3 0.956
    60  H   0.968    N   34 0.958
    61  H   0.994    C   36 0.956
 
molecular dipole:
                 x           y           z       tot (Debye)
 q only:       45.599      86.342      62.902
   full:       45.434      86.402      63.004     295.321
molecular quadrupole (traceless):
                xx          xy          yy          xz          yz          zz
 q only:    -1873.751    2947.194    2248.138    2149.295    4149.713    -374.387
  q+dip:    -1887.896    2937.073    2253.083    2145.251    4163.618    -365.187
   full:    -1889.267    2936.827    2253.517    2145.236    4162.296    -364.250
speedup 11.38
cpu  time for grad    1.04 s
wall time for grad    0.09 s

SCC energy    :     -88.1256728
rep           :       1.0866380
ES            :       0.4606855
AES           :      -0.0219779
AXC           :       0.0410002
disp          :      -0.0422621
XB            :       0.0000000
fix           :       0.0000000
Gborn         :       0.0000000
Gsasa         :       0.0000000
Ghb           :       0.0000000
Gshift        :       0.0000000
Gsolv         :      -0.2765131     -173.51
Etot ala COSMO:     -88.1256728
grad norm     :       0.3304502
total E       :     -87.0382177
atomizationE  :      14.3239093     8988.39
(atE without considering molecular charge,
 total energy contains solvation terms)
H-L gap (eV)  :          1.8761

------------------------------------------------------------------------
 * finished run on 2019/02/16 at 08:10:21.071     
------------------------------------------------------------------------
 total:
 * wall-time:     0 d,  0 h,  0 min,  0.155 sec
 *  cpu-time:     0 d,  0 h,  0 min,  1.656 sec
 * ratio c/w:    10.660 speedup
 SCF:
 * wall-time:     0 d,  0 h,  0 min,  0.103 sec
 *  cpu-time:     0 d,  0 h,  0 min,  1.167 sec
 * ratio c/w:    11.344 speedup

