      -----------------------------------------------------------      
     |                   =====================                   |     
     |                           x T B                           |     
     |                   =====================                   |     
     |                         S. Grimme                         |     
     |          Mulliken Center for Theoretical Chemistry        |     
     |                    University of Bonn                     |     
     |                 Version 6.0.1 (SAW181210)                 |     
      -----------------------------------------------------------      

   This program is distributed in the hope that it will be useful,
   but WITHOUT ANY WARRANTY; without even the implied warranty of
   MERCHANTABILITY or FITNESS FOR A PARTICULAR PURPOSE.
   
   FOR NON-COMMERCIAL, ACADEMIA USE ONLY.
   
   Cite this work as:
   S. Grimme, C. Bannwarth, P. Shushkov, J. Comput. Theory Chem., 2017,
   13, 1989-2009.
   C. Bannwarth, S. Ehlert and S. Grimme., ChemRxiv, 2018, preprint.
   http://doi.org/10.26434/chemrxiv.7246238.v1
   
   for sTDA-xTB:
   S. Grimme and C. Bannwarth, J. Chem. Phys., 2016, 145, 054103.
   
   in the mass-spec context:
   V. Asgeirsson, C. Bauer and S. Grimme, Chem. Sci., 2017, 8, 4879.
   
   if GBSA is used:
   P. Shushkov, F. März and S. Grimme, unpublished.
   
   for ANC optimizer:
   S. Grimme, unpublished.
   Rational Function algorithm used in ANCopt:
   F. Eckert, P. Pulay, H.-J. Werner, J. Comput. Chem., 1997, 18, 1473.
   
   with help from (in alphabetical order)
   C. Bannwarth, F. Bohle, G. Brandenburg, E. Caldeweyher, M. Checinski,
   S. Dohm, S. Ehlert, S. Ehrlich, F. März, H. Neugebauer, J. Pisarek,
   P. Pracht, P. Shushkov, and S. Spicher.
   
 * started run on 2019/02/16 at 08:10:16.631     
========================================================================
 # omp threads = 12
========================================================================
number of atoms            : 114
number of electrons        : 300
charge                     : 1
spin                       : .0
first test random number   : .8937

########################################################################
# WARNING! Please study the warnings concerning your input carefully
#  - Process number higher than OMP_NUM_THREADS, I hope you know what you are doing.
########################################################################

           ------------------------------------------------- 
          |                 G F N 2 - x T B                 |
          | Geometry, Frequencies, Noncovalent interactions |
          |            JCTC 2018 parametrisation            |
           ------------------------------------------------- 
 
      method parameters     
 k(s)        :  1.8500
 k(p)        :  2.2300
 k(d)        :  2.2300
 k(f)        :  2.0000
 kEN (H0ij)  : -2.0000
 D4 a1       :  0.5200
 D4 a2       :  5.0000
 D4 s6       :  1.0000
 D4 s8       :  2.7000
 D4 s9       :  5.0000
 alphaj      :  2.0000

 Solvent             : h2o
 Using internal parameter file: .param_gbsa2_h2o
 Gsolv ref. state (COSMO-RS): gsolv [1 M gas/solution]
 temperature (mdtemp)       :    298.150000000000     
 dielectric constant        :    80.2000000000000     
 rho                        :    1.00000000000000     
 mass                       :    18.0000000000000     
 surface tension            :    15.5689454083859     
 probe radius               :   0.975313790000000     
 vdW radii scaling          :    1.00000000000000     
 Gshift (Eh)                :   1.857443126794793E-003
 c1                         :    1.55243817000000     
 soset                      :   0.130326360000000     
 HB correction              :  T

            Z     q(EN)     CN     RAES       Cart. coordinates
     1  N   5.0   -0.20    3.14    1.94    13.27482    36.54424     8.45668
     2  C   4.0    0.03    4.14    3.89    14.49205    34.01076     8.40819
     3  C   4.0    0.08    3.21    3.04    12.40793    31.95429     8.34143
     4  O   6.0   -0.28    1.10    1.80    12.59383    30.09712     6.89695
     5  H   1.0    0.10    1.02    1.43    13.56950    37.63423    10.00156
     6  H   1.0    0.04    1.05    1.44    15.55004    33.83457     6.64338
     7  C   4.0   -0.05    4.18    3.96    16.29011    33.40799    10.65043
     8  C   4.0   -0.04    4.14    3.88    17.28561    30.66706    10.81305
     9  C   4.0   -0.00    4.14    3.88    19.21888    29.86138     8.77784
    10  N   5.0   -0.12    3.35    2.00    19.77082    27.13035     8.92905
    11  C   4.0    0.10    3.34    3.06    21.44360    25.80285     7.57387
    12  N   5.0   -0.16    3.26    1.97    23.27307    26.88384     6.23893
    13  N   5.0   -0.16    3.24    1.97    21.54359    23.28542     7.88781
    14  H   1.0    0.04    1.02    1.43    17.87706    34.72045    10.56823
    15  H   1.0    0.06    1.03    1.43    15.23544    33.77825    12.38726
    16  H   1.0    0.06    1.03    1.43    18.15641    30.50230    12.67074
    17  H   1.0    0.06    1.03    1.43    15.68271    29.36702    10.76919
    18  H   1.0    0.06    1.04    1.43    18.45287    30.28470     6.91291
    19  H   1.0    0.05    1.02    1.43    20.98490    30.89585     9.04494
    20  H   1.0    0.09    1.07    1.44    18.36625    26.03535     9.71439
    21  H   1.0    0.11    1.04    1.43    22.98042    28.61069     5.47572
    22  H   1.0    0.11    1.05    1.44    24.47428    25.74842     5.24384
    23  H   1.0    0.10    1.03    1.43    20.02784    22.45041     8.69953
    24  H   1.0    0.10    1.03    1.43    22.70419    22.21430     6.80608
    25  N   5.0   -0.18    3.19    1.95     9.40011    31.84216     1.78350
    26  C   4.0    0.04    4.23    4.06    11.10708    30.75534    -0.11416
    27  C   4.0    0.10    3.25    3.04    11.30735    27.93082     0.18699
    28  O   6.0   -0.23    1.10    1.80    11.24680    26.35054    -1.59760
    29  C   4.0   -0.03    4.38    4.35    13.72494    31.85766     0.15139
    30  C   4.0    0.17    3.25    3.04    15.60892    31.10892    -1.84831
    31  O   6.0   -0.28    1.28    1.80    17.61420    30.06141    -1.29887
    32  N   5.0   -0.16    3.25    1.97    14.83772    31.57269    -4.09288
    33  H   1.0    0.10    1.02    1.43    10.11366    33.08325     3.06118
    34  H   1.0    0.06    1.05    1.44    10.26695    31.10058    -1.97983
    35  H   1.0    0.04    1.03    1.43    13.54953    33.92176     0.14511
    36  H   1.0    0.06    1.03    1.43    14.48129    31.32009     1.99872
    37  H   1.0    0.12    1.03    1.43    15.72888    30.84485    -5.63871
    38  H   1.0    0.09    1.05    1.44    13.18127    32.48083    -4.34734
    39  O   6.0   -0.29    1.94    1.82    24.89827    29.36648     1.46451
    40  H   1.0    0.15    1.00    1.43    26.10690    30.32862     2.43998
    41  H   1.0    0.16    1.01    1.43    24.29852    30.46928     0.14075
    42  O   6.0   -0.30    1.99    1.83    19.23461    28.79774     3.37095
    43  H   1.0    0.17    1.03    1.43    18.86932    29.36796     1.66175
    44  H   1.0    0.14    0.98    1.43    19.40137    27.00371     3.20216
    45  O   6.0   -0.26    1.93    1.82    29.36648    24.89827    -1.46451
    46  H   1.0    0.16    1.00    1.43    30.32862    26.10690    -2.43998
    47  H   1.0    0.16    1.01    1.43    30.46928    24.29852    -0.14075
    48  O   6.0   -0.27    1.95    1.82    26.91338    23.24165     3.81844
    49  H   1.0    0.16    0.98    1.43    27.23102    23.24270     2.03765
    50  H   1.0    0.14    0.96    1.43    26.09595    21.63367     4.20934
    51  O   6.0   -0.24    1.92    1.82    23.24165    26.91338    -3.81844
    52  H   1.0    0.15    0.98    1.43    23.24270    27.23102    -2.03765
    53  H   1.0    0.15    0.96    1.43    21.63367    26.09595    -4.20934
    54  N   5.0   -0.17    3.21    1.96    35.84992    26.77711     0.37903
    55  C   4.0    0.03    4.26    4.13    34.79518    27.32027     2.86750
    56  C   4.0    0.10    3.20    3.04    33.76719    24.84794     4.03810
    57  O   6.0   -0.27    1.18    1.80    32.22020    23.62879     2.83565
    58  C   4.0   -0.03    4.31    4.21    32.81117    29.37148     2.64255
    59  C   4.0   -0.03    4.28    4.16    32.08471    30.12649     5.28115
    60  C   4.0    0.16    3.24    3.04    30.41934    32.49328     5.14356
    61  O   6.0   -0.32    1.29    1.80    28.44145    32.48441     4.02600
    62  N   5.0   -0.18    3.20    1.96    31.22832    34.47951     6.37107
    63  H   1.0    0.12    1.04    1.43    34.58066    26.88115    -1.05914
    64  H   1.0    0.05    1.05    1.44    36.37007    27.98562     4.04166
    65  H   1.0    0.05    1.03    1.43    33.61249    30.96060     1.60355
    66  H   1.0    0.07    1.03    1.43    31.16529    28.66171     1.62356
    67  H   1.0    0.06    1.03    1.43    30.96342    28.63346     6.15464
    68  H   1.0    0.05    1.03    1.43    33.74195    30.49634     6.44463
    69  H   1.0    0.09    1.03    1.43    32.77716    34.43616     7.49902
    70  H   1.0    0.10    1.03    1.43    30.12969    36.05136     6.49528
    71  N   5.0   -0.18    3.20    1.96    26.87106    41.18446     3.59523
    72  C   4.0    0.03    4.34    4.28    25.44699    38.95135     2.79129
    73  C   4.0    0.15    3.44    3.09    25.99985    38.21770     0.14642
    74  O   6.0   -0.27    1.27    1.80    25.87528    39.71921    -1.56432
    75  C   4.0   -0.04    4.41    4.39    22.58313    39.52081     2.94021
    76  C   4.0   -0.02    4.20    4.01    20.95843    37.24086     2.46642
    77  C   4.0   -0.07    4.17    3.93    21.49530    35.25235     4.43398
    78  C   4.0   -0.07    4.11    3.83    18.13410    37.98242     2.79307
    79  H   1.0    0.11    1.02    1.43    26.61793    42.78063     2.56852
    80  H   1.0    0.05    1.06    1.44    25.95978    37.45044     4.11160
    81  H   1.0    0.05    1.03    1.43    22.18174    40.27552     4.81692
    82  H   1.0    0.06    1.03    1.43    22.18174    41.00386     1.55777
    83  H   1.0    0.06    1.05    1.44    21.25846    36.49346     0.56485
    84  H   1.0    0.05    1.00    1.43    20.23183    33.64864     4.17517
    85  H   1.0    0.05    1.00    1.43    23.40493    34.50721     4.31589
    86  H   1.0    0.04    1.00    1.43    21.18962    36.02405     6.31334
    87  H   1.0    0.04    1.00    1.43    16.92400    36.35291     2.51006
    88  H   1.0    0.04    1.00    1.43    17.84179    38.71448     4.68797
    89  H   1.0    0.06    1.00    1.43    17.60525    39.43465     1.43683
    90  N   5.0   -0.13    3.46    2.05    26.77711    35.84992    -0.37903
    91  C   4.0    0.04    4.34    4.26    27.32027    34.79518    -2.86750
    92  C   4.0    0.10    3.20    3.04    24.84794    33.76719    -4.03810
    93  O   6.0   -0.28    1.18    1.80    23.62879    32.22020    -2.83565
    94  C   4.0   -0.03    4.31    4.21    29.37148    32.81117    -2.64255
    95  C   4.0   -0.03    4.28    4.16    30.12649    32.08471    -5.28115
    96  C   4.0    0.17    3.24    3.04    32.49328    30.41934    -5.14356
    97  O   6.0   -0.30    1.29    1.80    32.48441    28.44145    -4.02600
    98  N   5.0   -0.17    3.20    1.96    34.47951    31.22832    -6.37107
    99  H   1.0    0.10    1.08    1.44    26.88115    34.58066     1.05914
   100  H   1.0    0.06    1.06    1.44    27.98562    36.37007    -4.04166
   101  H   1.0    0.06    1.03    1.43    30.96060    33.61249    -1.60355
   102  H   1.0    0.07    1.03    1.43    28.66171    31.16529    -1.62356
   103  H   1.0    0.07    1.03    1.43    28.63346    30.96342    -6.15464
   104  H   1.0    0.05    1.03    1.43    30.49634    33.74195    -6.44463
   105  H   1.0    0.10    1.03    1.43    34.43616    32.77716    -7.49902
   106  H   1.0    0.11    1.03    1.43    36.05136    30.12969    -6.49528
   107  H   1.0    0.10    1.06    1.44    13.83257    37.46733     7.14162
   108  H   1.0    0.07    1.04    1.43    10.89431    32.10626     9.46256
   109  H   1.0    0.11    1.07    1.44     8.15368    32.69645     1.00301
   110  H   1.0    0.08    1.05    1.44    11.50585    27.17580     1.90793
   111  H   1.0    0.11    1.07    1.44    37.08661    27.89158     0.03100
   112  H   1.0    0.07    1.04    1.43    34.37084    24.28503     5.73804
   113  H   1.0    0.10    1.07    1.44    26.44050    41.58851     5.19020
   114  H   1.0    0.07    1.04    1.43    24.28503    34.37084    -5.73804

  Z AO/shell   Hii/eV     exponent
  1     Wed Apr 25 08:07:45 CEST 2018   EN: 2.200 GM2: 0.406  GM3: 0.0800  RAES: 1.40
     1s    -10.707211    1.230000
  6     Wed Apr 25 08:07:45 CEST 2018   EN: 2.550 GM2: 0.538  GM3: 0.1500  RAES: 3.00
     2s    -13.970922    2.096432
     2p    -10.063292    1.800000
  7     Wed Apr 25 08:07:45 CEST 2018   EN: 3.040 GM2: 0.461  GM3:-0.0640  RAES: 1.90
     2s    -16.686243    2.339881
     2p    -12.523956    2.014332
  8     Wed Apr 25 08:07:45 CEST 2018   EN: 3.440 GM2: 0.452  GM3:-0.0517  RAES: 1.80
     2s    -20.229985    2.439742
     2p    -15.503117    2.137023
 no old-style atom pair restraining (fixing) potential

molecular fragmentation (1/2 indicates fragments):
111111111111111111111111222222222222222222222222222222222222222222222222
222222222222222222222222222222222211222222
# atoms in fragment 1/2:    26    88
 fragment masses (1/2) :      159.21      579.65
CMA distance (Bohr)    :  11.038
constraining FC (au)   :  0.0500
           ------------------------------------------------- 
          |        Self-Consistent Charge Iterations        |
           ------------------------------------------------- 

 Ncao       : 264
 Nao        : 264
 Nshell     : 164
 Nel        : 300
 T(el)      :   500.0
 intcut     :    35.0
 scfconv/Eh :  0.100E-06
   qconv/e  :  0.100E-04
 intneglect :  0.100E-08
 broydamp   :      0.400
 iter      E             dE          RMSdq      gap      omega  full diag
   1   -174.4215743 -0.174422E+03  0.497E+00    3.13       0.0  T
   2   -174.8653801 -0.443806E+00  0.230E+00    1.72       1.0  T
   3   -174.8984363 -0.330562E-01  0.128E+00    2.08       1.0  T
   4   -174.9356311 -0.371948E-01  0.310E-01    1.64       1.0  T
   5   -174.9370828 -0.145175E-02  0.135E-01    1.78       1.0  T
   6   -174.9376471 -0.564284E-03  0.440E-02    1.73       1.0  T
   7   -174.9376821 -0.349472E-04  0.219E-02    1.72       1.0  T
   8   -174.9376878 -0.570698E-05  0.850E-03    1.72       1.1  T
   9   -174.9376901 -0.233945E-05  0.340E-03    1.72       2.8  T
  10   -174.9376904 -0.293996E-06  0.140E-03    1.72       6.7  T
  11   -174.9376904 -0.565113E-07  0.598E-04    1.72      15.7  T
  12   -174.9376905 -0.455427E-08  0.195E-04    1.72      47.9  T
  13   -174.9376905 -0.133949E-08  0.934E-05    1.72     100.3  T
  14   -174.9376905 -0.210235E-09  0.314E-05    1.72     298.3  T
speedup  9.28
cpu  time for SCC    1.86 s
wall time for SCC    0.20 s

   *** convergence criteria satisfied after 14 iterations ***

          eigenvalues
 #    :         138        139        140        141        142        143        144        145
 occ. :        2.000      2.000      2.000      2.000      2.000      2.000      2.000      2.000
 eps  :       -11.168    -11.135    -11.128    -11.100    -11.065    -11.049    -10.940    -10.876
 #    :         146        147        148        149        150        151        152        153
 occ. :        2.000      2.000      2.000      2.000      2.000      0.000      0.000      0.000
 eps  :       -10.766    -10.225    -10.103    -10.054     -9.766     -8.049     -7.972     -7.760
 #    :         154        155        156        157        158        159        160        161
 occ. :        0.000      0.000      0.000      0.000      0.000      0.000      0.000      0.000
 eps  :        -7.667     -5.887     -5.863     -5.795     -5.690     -5.651     -1.612     -0.549


   #   Z            q   n(s)   n(p)   n(d)      C6AA      α(0)
   1   7 N     -0.391  1.327  4.065  0.000    30.137     8.153
   2   6 C      0.029  1.066  2.904  0.000    20.109     6.389
   3   6 C      0.191  1.101  2.707  0.000    23.912     8.008
   4   8 O     -0.374  1.767  4.606  0.000    21.159     6.167
   5   1 H      0.166  0.834  0.000  0.000     1.300     1.786
   6   1 H      0.065  0.935  0.000  0.000     2.141     2.288
   7   6 C     -0.075  1.061  3.015  0.000    21.939     6.669
   8   6 C     -0.078  1.055  3.023  0.000    21.995     6.678
   9   6 C     -0.030  1.058  2.972  0.000    21.199     6.572
  10   7 N     -0.141  1.229  3.912  0.000    24.058     7.285
  11   6 C      0.229  1.024  2.747  0.000    23.196     7.885
  12   7 N     -0.240  1.252  3.988  0.000    26.268     7.612
  13   7 N     -0.269  1.249  4.020  0.000    26.955     7.711
  14   1 H      0.066  0.934  0.000  0.000     2.128     2.281
  15   1 H      0.058  0.942  0.000  0.000     2.217     2.329
  16   1 H      0.070  0.930  0.000  0.000     2.088     2.260
  17   1 H      0.050  0.950  0.000  0.000     2.322     2.383
  18   1 H      0.102  0.898  0.000  0.000     1.768     2.079
  19   1 H      0.086  0.914  0.000  0.000     1.914     2.163
  20   1 H      0.217  0.783  0.000  0.000     1.024     1.586
  21   1 H      0.248  0.752  0.000  0.000     0.893     1.480
  22   1 H      0.250  0.750  0.000  0.000     0.885     1.474
  23   1 H      0.237  0.763  0.000  0.000     0.935     1.515
  24   1 H      0.240  0.760  0.000  0.000     0.921     1.503
  25   7 N     -0.384  1.315  4.069  0.000    29.926     8.125
  26   6 C      0.047  1.049  2.904  0.000    19.810     6.340
  27   6 C      0.197  1.098  2.705  0.000    23.800     7.990
  28   8 O     -0.402  1.781  4.621  0.000    21.726     6.249
  29   6 C     -0.104  1.059  3.045  0.000    22.462     6.743
  30   6 C      0.290  1.022  2.688  0.000    22.080     7.694
  31   8 O     -0.498  1.744  4.754  0.000    23.737     6.532
  32   7 N     -0.261  1.255  4.005  0.000    26.761     7.683
  33   1 H      0.168  0.832  0.000  0.000     1.285     1.776
  34   1 H      0.057  0.943  0.000  0.000     2.237     2.339
  35   1 H      0.079  0.921  0.000  0.000     1.990     2.206
  36   1 H      0.090  0.910  0.000  0.000     1.875     2.141
  37   1 H      0.239  0.761  0.000  0.000     0.926     1.507
  38   1 H      0.232  0.768  0.000  0.000     0.955     1.531
  39   8 O     -0.638  1.749  4.889  0.000    26.124     6.898
  40   1 H      0.305  0.695  0.000  0.000     0.707     1.321
  41   1 H      0.303  0.697  0.000  0.000     0.713     1.326
  42   8 O     -0.632  1.748  4.885  0.000    25.973     6.878
  43   1 H      0.309  0.691  0.000  0.000     0.694     1.309
  44   1 H      0.300  0.700  0.000  0.000     0.722     1.335
  45   8 O     -0.658  1.760  4.898  0.000    26.609     6.962
  46   1 H      0.304  0.696  0.000  0.000     0.709     1.322
  47   1 H      0.316  0.684  0.000  0.000     0.675     1.291
  48   8 O     -0.617  1.754  4.863  0.000    25.590     6.827
  49   1 H      0.318  0.682  0.000  0.000     0.668     1.284
  50   1 H      0.318  0.682  0.000  0.000     0.669     1.285
  51   8 O     -0.640  1.771  4.869  0.000    26.171     6.905
  52   1 H      0.320  0.680  0.000  0.000     0.664     1.280
  53   1 H      0.318  0.682  0.000  0.000     0.670     1.286
  54   7 N     -0.399  1.326  4.073  0.000    30.332     8.180
  55   6 C      0.036  1.059  2.905  0.000    19.975     6.365
  56   6 C      0.198  1.092  2.710  0.000    23.777     7.985
  57   8 O     -0.339  1.748  4.590  0.000    20.495     6.070
  58   6 C     -0.059  1.049  3.010  0.000    21.626     6.619
  59   6 C     -0.108  1.060  3.049  0.000    22.555     6.759
  60   6 C      0.295  1.031  2.674  0.000    22.001     7.680
  61   8 O     -0.494  1.723  4.771  0.000    23.644     6.519
  62   7 N     -0.272  1.264  4.009  0.000    27.048     7.724
  63   1 H      0.176  0.824  0.000  0.000     1.237     1.742
  64   1 H      0.044  0.956  0.000  0.000     2.390     2.418
  65   1 H      0.045  0.955  0.000  0.000     2.385     2.415
  66   1 H      0.075  0.925  0.000  0.000     2.032     2.229
  67   1 H      0.077  0.923  0.000  0.000     2.006     2.215
  68   1 H      0.056  0.944  0.000  0.000     2.241     2.341
  69   1 H      0.229  0.771  0.000  0.000     0.968     1.541
  70   1 H      0.226  0.774  0.000  0.000     0.984     1.554
  71   7 N     -0.392  1.322  4.070  0.000    30.143     8.154
  72   6 C      0.028  1.056  2.916  0.000    20.116     6.388
  73   6 C      0.282  1.040  2.678  0.000    22.217     7.719
  74   8 O     -0.505  1.742  4.763  0.000    23.888     6.553
  75   6 C     -0.067  1.058  3.008  0.000    21.757     6.638
  76   6 C     -0.008  1.051  2.958  0.000    20.692     6.470
  77   6 C     -0.129  1.042  3.087  0.000    23.006     6.836
  78   6 C     -0.114  1.045  3.069  0.000    22.734     6.797
  79   1 H      0.151  0.849  0.000  0.000     1.397     1.851
  80   1 H      0.056  0.944  0.000  0.000     2.241     2.341
  81   1 H      0.045  0.955  0.000  0.000     2.384     2.415
  82   1 H      0.028  0.972  0.000  0.000     2.608     2.526
  83   1 H      0.014  0.986  0.000  0.000     2.833     2.632
  84   1 H      0.061  0.939  0.000  0.000     2.192     2.315
  85   1 H      0.046  0.954  0.000  0.000     2.370     2.408
  86   1 H      0.049  0.951  0.000  0.000     2.337     2.391
  87   1 H      0.040  0.960  0.000  0.000     2.444     2.445
  88   1 H      0.044  0.956  0.000  0.000     2.395     2.420
  89   1 H      0.027  0.973  0.000  0.000     2.628     2.535
  90   7 N     -0.190  1.251  3.940  0.000    25.126     7.445
  91   6 C      0.029  1.061  2.910  0.000    20.094     6.383
  92   6 C      0.198  1.088  2.714  0.000    23.789     7.987
  93   8 O     -0.323  1.745  4.577  0.000    20.194     6.025
  94   6 C     -0.061  1.048  3.013  0.000    21.660     6.624
  95   6 C     -0.103  1.056  3.047  0.000    22.457     6.745
  96   6 C      0.297  1.028  2.674  0.000    21.955     7.672
  97   8 O     -0.490  1.730  4.760  0.000    23.566     6.509
  98   7 N     -0.279  1.265  4.013  0.000    27.201     7.746
  99   1 H      0.217  0.783  0.000  0.000     1.023     1.584
 100   1 H      0.072  0.928  0.000  0.000     2.059     2.244
 101   1 H      0.065  0.935  0.000  0.000     2.138     2.287
 102   1 H      0.089  0.911  0.000  0.000     1.891     2.150
 103   1 H      0.070  0.930  0.000  0.000     2.084     2.257
 104   1 H      0.058  0.942  0.000  0.000     2.219     2.330
 105   1 H      0.229  0.771  0.000  0.000     0.968     1.541
 106   1 H      0.233  0.767  0.000  0.000     0.953     1.529
 107   1 H      0.178  0.822  0.000  0.000     1.223     1.733
 108   1 H      0.076  0.924  0.000  0.000     2.016     2.220
 109   1 H      0.190  0.810  0.000  0.000     1.160     1.687
 110   1 H      0.094  0.906  0.000  0.000     1.839     2.121
 111   1 H      0.180  0.820  0.000  0.000     1.214     1.726
 112   1 H      0.078  0.922  0.000  0.000     2.002     2.213
 113   1 H      0.189  0.811  0.000  0.000     1.162     1.688
 114   1 H      0.076  0.924  0.000  0.000     2.022     2.224

 Mol. C6AA /au·bohr⁶  :     103175.127180
 Mol. C8AA /au·bohr⁸  :    2197628.140477
 Mol. α(0) /au        :        477.482539

 
 Wiberg/Mayer (AO) data. WBOs > 0.1 written file <wbo>
 largest (>0.05) Wiberg bond orders for each atom
           total WBO             WBO to atom ...
     1  N   2.997    C    2 1.008    H  107 0.957    H    5 0.956
     2  C   3.980    N    1 1.008    C    3 0.975    C    7 0.960    H    6 0.959    O    4 0.056
     3  C   3.889    O    4 1.891    C    2 0.975    H  108 0.957
     4  O   2.028    C    3 1.891    C    2 0.056
     5  H   0.973    N    1 0.956
     6  H   0.996    C    2 0.959
     7  C   3.990    C    8 1.003    H   15 0.975    H   14 0.971    C    2 0.960
     8  C   3.992    C    9 1.006    C    7 1.003    H   16 0.974    H   17 0.972
     9  C   3.947    C    8 1.006    N   10 0.973    H   19 0.967    H   18 0.946
    10  N   3.458    C   11 1.314    C    9 0.973    H   20 0.917    N   12 0.107    N   13 0.095
    11  C   3.975    N   12 1.346    N   10 1.314    N   13 1.280
    12  N   3.410    C   11 1.346    H   21 0.901    H   22 0.888    N   10 0.107    N   13 0.099
    13  N   3.358    C   11 1.280    H   23 0.923    H   24 0.919    N   12 0.099    N   10 0.095
    14  H   0.996    C    7 0.971
    15  H   0.996    C    7 0.975
    16  H   0.995    C    8 0.974
    17  H   0.997    C    8 0.972
    18  H   0.990    C    9 0.946
    19  H   0.993    C    9 0.967
    20  H   0.953    N   10 0.917
    21  H   0.939    N   12 0.901
    22  H   0.938    N   12 0.888
    23  H   0.944    N   13 0.923
    24  H   0.942    N   13 0.919
    25  N   2.997    C   26 1.006    H  109 0.953    H   33 0.953
    26  C   3.987    N   25 1.006    C   27 0.989    C   29 0.957    H   34 0.953
    27  C   3.885    O   28 1.873    C   26 0.989    H  110 0.954
    28  O   2.000    C   27 1.873
    29  C   3.989    H   36 0.966    C   30 0.961    C   26 0.957    H   35 0.948    O   31 0.051
    30  C   3.950    O   31 1.589    N   32 1.372    C   29 0.961
    31  O   1.955    C   30 1.589    N   32 0.197    C   29 0.051
    32  N   3.441    C   30 1.372    H   38 0.920    H   37 0.915    O   31 0.197
    33  H   0.972    N   25 0.953
    34  H   0.997    C   26 0.953
    35  H   0.994    C   29 0.948
    36  H   0.992    C   29 0.966
    37  H   0.943    N   32 0.915
    38  H   0.946    N   32 0.920
    39  O   1.806    H   40 0.875    H   41 0.874
    40  H   0.907    O   39 0.875
    41  H   0.908    O   39 0.874
    42  O   1.816    H   44 0.904    H   43 0.850
    43  H   0.904    O   42 0.850
    44  H   0.910    O   42 0.904
    45  O   1.787    H   46 0.877    H   47 0.865
    46  H   0.908    O   45 0.877
    47  H   0.900    O   45 0.865
    48  O   1.840    H   50 0.895    H   49 0.890
    49  H   0.899    O   48 0.890
    50  H   0.899    O   48 0.895
    51  O   1.797    H   53 0.899    H   52 0.890
    52  H   0.898    O   51 0.890
    53  H   0.899    O   51 0.899
    54  N   2.989    C   55 1.006    H  111 0.955    H   63 0.939
    55  C   3.986    N   54 1.006    C   58 0.970    H   64 0.966    C   56 0.964    O   57 0.056
    56  C   3.891    O   57 1.912    C   55 0.964    H  112 0.954
    57  O   2.085    C   56 1.912    C   55 0.056
    58  C   3.992    C   59 0.998    H   65 0.971    C   55 0.970    H   66 0.966
    59  C   3.994    C   58 0.998    H   68 0.972    C   60 0.957    H   67 0.956    O   61 0.056
    60  C   3.943    O   61 1.609    N   62 1.340    C   59 0.957
    61  O   1.965    C   60 1.609    N   62 0.193    C   59 0.056
    62  N   3.418    C   60 1.340    H   69 0.925    H   70 0.922    O   61 0.193
    63  H   0.969    N   54 0.939
    64  H   0.998    C   55 0.966
    65  H   0.998    C   58 0.971
    66  H   0.994    C   58 0.966
    67  H   0.994    C   59 0.956
    68  H   0.997    C   59 0.972
    69  H   0.947    N   62 0.925
    70  H   0.948    N   62 0.922
    71  N   2.988    C   72 1.008    H   79 0.961    H  113 0.951
    72  C   3.984    N   71 1.008    C   73 0.968    C   75 0.957    H   80 0.955
    73  C   3.943    O   74 1.640    N   90 1.268    C   72 0.968
    74  O   1.944    C   73 1.640    N   90 0.193
    75  C   3.994    C   76 1.003    H   82 0.975    H   81 0.971    C   72 0.957
    76  C   3.996    C   77 1.013    C   75 1.003    C   78 0.998    H   83 0.968
    77  C   3.993    C   76 1.013    H   86 0.984    H   84 0.979    H   85 0.977
    78  C   3.996    C   76 0.998    H   89 0.989    H   88 0.986    H   87 0.985
    79  H   0.977    N   71 0.961
    80  H   0.997    C   72 0.955
    81  H   0.997    C   75 0.971
    82  H   0.999    C   75 0.975
    83  H   1.000    C   76 0.968
    84  H   0.996    C   77 0.979
    85  H   0.998    C   77 0.977
    86  H   0.998    C   77 0.984
    87  H   0.998    C   78 0.985
    88  H   0.998    C   78 0.986
    89  H   0.999    C   78 0.989
    90  N   3.448    C   73 1.268    C   91 0.976    H   99 0.904    O   74 0.193
    91  C   3.969    N   90 0.976    C   94 0.975    H  100 0.957    C   92 0.955    O   93 0.056
    92  C   3.899    O   93 1.920    C   91 0.955    H  114 0.954
    93  O   2.094    C   92 1.920    C   91 0.056
    94  C   3.985    C   95 0.999    C   91 0.975    H  101 0.969    H  102 0.963
    95  C   3.994    C   94 0.999    H  104 0.972    H  103 0.958    C   96 0.954    O   97 0.057
    96  C   3.944    O   97 1.621    N   98 1.335    C   95 0.954
    97  O   1.973    C   96 1.621    N   98 0.196    C   95 0.057
    98  N   3.412    C   96 1.335    H  105 0.925    H  106 0.920    O   97 0.196
    99  H   0.953    N   90 0.904
   100  H   0.994    C   91 0.957
   101  H   0.996    C   94 0.969
   102  H   0.992    C   94 0.963
   103  H   0.995    C   95 0.958
   104  H   0.996    C   95 0.972
   105  H   0.947    N   98 0.925
   106  H   0.945    N   98 0.920
   107  H   0.968    N    1 0.957
   108  H   0.994    C    3 0.957
   109  H   0.964    N   25 0.953
   110  H   0.991    C   27 0.954
   111  H   0.968    N   54 0.955
   112  H   0.994    C   56 0.954
   113  H   0.964    N   71 0.951
   114  H   0.994    C   92 0.954
 
molecular dipole:
                 x           y           z       tot (Debye)
 q only:       23.738      31.047       8.141
   full:       23.618      32.245       7.551     103.391
molecular quadrupole (traceless):
                xx          xy          yy          xz          yz          zz
 q only:      102.483    1103.478     607.792     262.075     343.642    -710.276
  q+dip:       59.007    1139.899     687.428     245.617     318.043    -746.436
   full:       59.563    1139.068     687.053     245.009     319.097    -746.615
speedup  9.52
cpu  time for grad    2.10 s
wall time for grad    0.22 s

SCC energy    :    -174.9463490
rep           :       2.0810423
ES            :       0.6058631
AES           :      -0.0292928
AXC           :       0.0602290
disp          :      -0.1094885
XB            :       0.0000000
fix           :       0.0000000
Gborn         :       0.0000000
Gsasa         :       0.0000000
Ghb           :       0.0000000
Gshift        :       0.0000000
Gsolv         :      -0.1422688      -89.27
Etot ala COSMO:    -174.9463490
grad norm     :       0.4991334
total E       :    -172.8586499
atomizationE  :      28.6881399    18002.08
(atE without considering molecular charge,
 total energy contains solvation terms)
H-L gap (eV)  :          1.7165

------------------------------------------------------------------------
 * finished run on 2019/02/16 at 08:10:16.990     
------------------------------------------------------------------------
 total:
 * wall-time:     0 d,  0 h,  0 min,  0.358 sec
 *  cpu-time:     0 d,  0 h,  0 min,  2.955 sec
 * ratio c/w:     8.256 speedup
 SCF:
 * wall-time:     0 d,  0 h,  0 min,  0.266 sec
 *  cpu-time:     0 d,  0 h,  0 min,  2.403 sec
 * ratio c/w:     9.019 speedup

