      -----------------------------------------------------------      
     |                   =====================                   |     
     |                           x T B                           |     
     |                   =====================                   |     
     |                         S. Grimme                         |     
     |          Mulliken Center for Theoretical Chemistry        |     
     |                    University of Bonn                     |     
     |                 Version 6.0.1 (SAW181210)                 |     
      -----------------------------------------------------------      

   This program is distributed in the hope that it will be useful,
   but WITHOUT ANY WARRANTY; without even the implied warranty of
   MERCHANTABILITY or FITNESS FOR A PARTICULAR PURPOSE.
   
   FOR NON-COMMERCIAL, ACADEMIA USE ONLY.
   
   Cite this work as:
   S. Grimme, C. Bannwarth, P. Shushkov, J. Comput. Theory Chem., 2017,
   13, 1989-2009.
   C. Bannwarth, S. Ehlert and S. Grimme., ChemRxiv, 2018, preprint.
   http://doi.org/10.26434/chemrxiv.7246238.v1
   
   for sTDA-xTB:
   S. Grimme and C. Bannwarth, J. Chem. Phys., 2016, 145, 054103.
   
   in the mass-spec context:
   V. Asgeirsson, C. Bauer and S. Grimme, Chem. Sci., 2017, 8, 4879.
   
   if GBSA is used:
   P. Shushkov, F. März and S. Grimme, unpublished.
   
   for ANC optimizer:
   S. Grimme, unpublished.
   Rational Function algorithm used in ANCopt:
   F. Eckert, P. Pulay, H.-J. Werner, J. Comput. Chem., 1997, 18, 1473.
   
   with help from (in alphabetical order)
   C. Bannwarth, F. Bohle, G. Brandenburg, E. Caldeweyher, M. Checinski,
   S. Dohm, S. Ehlert, S. Ehrlich, F. März, H. Neugebauer, J. Pisarek,
   P. Pracht, P. Shushkov, and S. Spicher.
   
 * started run on 2019/02/22 at 14:20:06.089     
========================================================================
 # omp threads = 12
========================================================================
number of atoms            : 364
number of electrons        : 998
charge                     : -1
spin                       : .0
first test random number   : .7329

########################################################################
# WARNING! Please study the warnings concerning your input carefully
#  - Process number higher than OMP_NUM_THREADS, I hope you know what you are doing.
########################################################################

           ------------------------------------------------- 
          |                 G F N 2 - x T B                 |
          | Geometry, Frequencies, Noncovalent interactions |
          |            JCTC 2018 parametrisation            |
           ------------------------------------------------- 
 
      method parameters     
 k(s)        :  1.8500
 k(p)        :  2.2300
 k(d)        :  2.2300
 k(f)        :  2.0000
 kEN (H0ij)  : -2.0000
 D4 a1       :  0.5200
 D4 a2       :  5.0000
 D4 s6       :  1.0000
 D4 s8       :  2.7000
 D4 s9       :  5.0000
 alphaj      :  2.0000

 Solvent             : h2o
 Using internal parameter file: .param_gbsa2_h2o
 Gsolv ref. state (COSMO-RS): gsolv [1 M gas/solution]
 temperature (mdtemp)       :    298.150000000000     
 dielectric constant        :    80.2000000000000     
 rho                        :    1.00000000000000     
 mass                       :    18.0000000000000     
 surface tension            :    15.5689454083859     
 probe radius               :   0.975313790000000     
 vdW radii scaling          :    1.00000000000000     
 Gshift (Eh)                :   1.857443126794793E-003
 c1                         :    1.55243817000000     
 soset                      :   0.130326360000000     
 HB correction              :  T

            Z     q(EN)     CN     RAES       Cart. coordinates
     1  N   5.0   -0.20    3.32    1.99    18.12172    22.06049    36.10533
     2  C   4.0    0.03    4.43    4.44    19.54298    19.73073    36.16322
     3  C   4.0    0.15    3.45    3.10    20.97822    19.50980    38.64963
     4  O   6.0   -0.29    1.28    1.80    21.65335    21.41458    39.84641
     5  C   4.0   -0.04    4.11    3.82    21.17090    19.34377    33.89210
     6  S   6.0   -0.05    2.43    3.10    23.12474    22.14798    33.21915
     7  H   1.0    0.13    1.10    1.44    19.12624    23.55098    36.36118
     8  H   1.0    0.04    1.08    1.44    18.14459    18.23441    36.29718
     9  H   1.0    0.04    1.08    1.44    22.44440    17.77039    34.08994
    10  H   1.0    0.04    1.07    1.44    20.18614    18.94440    32.15446
    11  H   1.0    0.05    0.99    1.43    24.98323    21.95323    31.93446
    12  N   5.0   -0.15    3.51    2.08    21.53117    17.18856    39.33783
    13  C   4.0    0.05    4.35    4.29    23.14705    16.61808    41.51089
    14  C   4.0    0.09    3.27    3.05    24.59287    14.25555    40.73584
    15  O   6.0   -0.29    1.13    1.80    23.41149    12.38989    39.88305
    16  C   4.0   -0.02    4.32    4.24    21.62686    16.30753    43.93760
    17  C   4.0    0.16    3.27    3.05    23.15881    15.06917    46.02156
    18  O   6.0   -0.30    1.27    1.80    23.72389    12.84235    45.85110
    19  N   5.0   -0.20    3.23    1.96    23.67042    16.45380    48.00877
    20  H   1.0    0.09    1.10    1.44    20.77732    15.79232    38.47772
    21  H   1.0    0.07    1.08    1.44    24.39663    18.20966    41.67576
    22  H   1.0    0.06    1.04    1.44    20.96242    18.12417    44.51093
    23  H   1.0    0.05    1.05    1.44    20.06858    15.09965    43.52313
    24  H   1.0    0.12    1.08    1.44    23.29761    18.26151    48.00725
    25  H   1.0    0.13    1.07    1.44    24.65123    15.74086    49.38279
    26  N   5.0   -0.20    3.20    1.95    22.25832     7.88852    44.08398
    27  C   4.0    0.03    4.22    4.05    19.58372     7.04551    44.03021
    28  C   4.0    0.08    3.19    3.03    18.26049     7.41127    41.50552
    29  O   6.0   -0.30    1.13    1.80    16.54905     5.99249    40.93121
    30  C   4.0   -0.03    4.32    4.24    18.13060     8.53910    46.10152
    31  C   4.0   -0.01    3.55    3.14    19.07124     8.03605    48.77511
    32  C   4.0   -0.05    3.49    3.11    18.71025     5.74090    49.84349
    33  C   4.0   -0.03    3.47    3.10    20.22612     9.97716    50.13623
    34  C   4.0   -0.05    3.40    3.08    19.49626     5.28872    52.30628
    35  C   4.0   -0.04    3.35    3.07    20.98360     9.56129    52.66166
    36  C   4.0   -0.04    3.39    3.08    20.58746     7.20969    53.68034
    37  H   1.0    0.13    1.07    1.44    22.53287     9.67712    44.12712
    38  H   1.0    0.05    1.07    1.44    19.53529     5.05364    44.40783
    39  H   1.0    0.05    1.03    1.43    18.23183    10.54656    45.63853
    40  H   1.0    0.05    1.05    1.44    16.22975     7.92066    45.84976
    41  H   1.0    0.05    1.05    1.44    17.71835     4.29887    48.86926
    42  H   1.0    0.07    1.04    1.43    20.55119    11.72238    49.23884
    43  H   1.0    0.05    1.04    1.43    19.24624     3.48601    53.15015
    44  H   1.0    0.06    1.02    1.43    21.82784    11.09734    53.71987
    45  H   1.0    0.05    1.02    1.43    21.17676     6.89341    55.63832
    46  N   5.0   -0.17    3.43    2.04    31.10113    31.00417    35.65125
    47  C   4.0    0.03    4.43    4.42    33.68074    30.17288    35.93777
    48  C   4.0    0.15    3.40    3.08    33.98582    27.39671    36.62018
    49  O   6.0   -0.30    1.25    1.80    35.98768    26.34102    36.28967
    50  C   4.0   -0.04    4.36    4.30    34.64627    31.88865    38.14351
    51  C   4.0   -0.03    4.23    4.07    32.23272    32.41370    39.76801
    52  C   4.0   -0.00    4.27    4.13    30.23924    32.68946    37.75812
    53  H   1.0    0.04    1.05    1.44    34.80731    30.56166    34.27406
    54  H   1.0    0.05    1.05    1.44    35.98149    30.95852    39.22994
    55  H   1.0    0.04    1.04    1.43    35.39822    33.58999    37.39995
    56  H   1.0    0.07    1.03    1.43    31.84662    30.78119    40.92168
    57  H   1.0    0.05    1.04    1.43    32.43584    34.07299    40.85827
    58  H   1.0    0.05    1.03    1.43    28.42019    32.04777    38.39405
    59  H   1.0    0.05    1.04    1.43    30.03146    34.52438    36.98025
    60  N   5.0   -0.15    3.42    2.03    31.98901    26.16839    37.61702
    61  C   4.0    0.03    4.31    4.21    32.15128    23.50208    38.19060
    62  C   4.0    0.16    3.35    3.07    33.85279    22.90484    40.41687
    63  O   6.0   -0.29    1.22    1.80    35.22056    20.96840    40.42308
    64  H   1.0    0.11    1.12    1.45    30.44061    26.90684    38.03345
    65  H   1.0    0.06    1.04    1.43    30.36143    22.66800    38.45055
    66  H   1.0    0.06    1.06    1.44    32.96890    22.66750    36.55683
    67  N   5.0   -0.14    3.50    2.08    33.70697    24.44455    42.41278
    68  C   4.0    0.05    4.46    4.48    35.42744    24.23491    44.51566
    69  C   4.0    0.15    3.46    3.10    34.25058    23.83396    47.09285
    70  O   6.0   -0.30    1.36    1.80    35.08812    24.95707    48.95473
    71  C   4.0   -0.02    4.34    4.27    37.29068    26.50509    44.59168
    72  C   4.0    0.17    3.25    3.04    35.92946    29.02977    44.75724
    73  O   6.0   -0.26    1.23    1.80    33.58378    29.21279    44.99572
    74  N   5.0   -0.20    3.21    1.96    37.43910    31.02042    44.47851
    75  H   1.0    0.12    1.10    1.44    32.55356    25.80823    42.49956
    76  H   1.0    0.06    1.10    1.44    36.45874    22.52297    44.23839
    77  H   1.0    0.06    1.04    1.43    38.52550    26.32269    46.17319
    78  H   1.0    0.05    1.05    1.44    38.25814    26.35225    42.83329
    79  H   1.0    0.09    1.07    1.44    39.19733    30.78761    44.44742
    80  H   1.0    0.10    1.05    1.44    36.80885    32.72092    44.52020
    81  N   5.0   -0.10    3.67    2.24    32.36898    22.10128    47.38674
    82  C   4.0    0.02    4.57    4.63    31.48750    20.23556    45.53286
    83  C   4.0    0.15    3.46    3.10    29.18331    21.11234    44.01020
    84  O   6.0   -0.30    1.23    1.80    28.38774    19.70751    42.28230
    85  C   4.0   -0.04    4.41    4.40    30.74887    17.99661    47.16997
    86  C   4.0   -0.04    4.34    4.28    29.77654    19.23245    49.53569
    87  C   4.0   -0.00    4.39    4.36    31.54258    21.41863    50.00522
    88  H   1.0    0.06    1.08    1.44    32.82308    19.78837    44.11778
    89  H   1.0    0.06    1.05    1.44    29.31483    16.93529    46.27840
    90  H   1.0    0.04    1.04    1.43    32.36986    16.85164    47.57725
    91  H   1.0    0.06    1.05    1.44    27.89796    19.84094    49.27086
    92  H   1.0    0.05    1.04    1.43    29.68410    17.94015    51.08216
    93  H   1.0    0.05    1.04    1.43    30.59258    22.96778    50.84186
    94  H   1.0    0.05    1.04    1.43    33.27029    20.96163    50.95055
    95  N   5.0   -0.13    3.54    2.10    27.99274    23.21211    44.75538
    96  C   4.0    0.05    4.50    4.54    25.72883    24.06115    43.50530
    97  C   4.0    0.15    3.45    3.09    26.34181    25.80545    41.31929
    98  O   6.0   -0.30    1.26    1.80    28.32983    27.11466    41.26245
    99  C   4.0   -0.02    4.38    4.35    24.09045    25.52881    45.32282
   100  C   4.0    0.25    3.15    3.03    23.12779    24.14543    47.52256
   101  O   6.0   -0.30    1.25    1.80    23.42653    21.87647    47.76976
   102  O   6.0   -0.26    1.21    1.80    22.00824    25.52137    49.16986
   103  H   1.0    0.09    1.16    1.45    28.58720    23.98596    46.18045
   104  H   1.0    0.07    1.09    1.44    24.76848    22.39010    42.91678
   105  H   1.0    0.06    1.04    1.43    25.17881    27.17819    45.96704
   106  H   1.0    0.06    1.06    1.44    22.61461    26.22906    44.12229
   107  N   5.0   -0.14    3.42    2.03    24.64888    25.83769    39.47099
   108  C   4.0    0.02    4.21    4.01    24.94105    27.46344    37.28792
   109  C   4.0    0.07    3.20    3.04    22.47094    27.73121    35.93300
   110  O   6.0   -0.29    1.21    1.80    20.46127    26.95517    36.82493
   111  H   1.0    0.12    1.12    1.45    23.15067    24.77160    39.49029
   112  H   1.0    0.05    1.05    1.44    25.40345    29.35770    37.75208
   113  H   1.0    0.04    1.04    1.43    26.30229    26.64790    36.02761
   114  C   4.0    0.03    3.07    3.02    20.21746    25.25693    55.55170
   115  O   6.0   -0.24    1.02    1.80    21.33901    23.48611    53.62779
   116  H   1.0    0.05    1.98    2.45    20.62896    27.04382    55.62075
   117  H   1.0    0.03    1.61    1.71    21.48061    27.31510    56.38542
   118  H   1.0    0.04    0.50    1.40    19.95397    23.81499    57.83985
   119  H   1.0    0.09    0.13    1.40    18.30935    23.86086    52.65034
   120  O   6.0   -0.28    1.94    1.82    18.52153    27.66079    41.62191
   121  H   1.0    0.15    1.00    1.43    19.88805    28.22367    40.67656
   122  H   1.0    0.13    0.97    1.43    17.37334    29.06663    41.56456
   123  C   4.0    0.00    3.93    3.50    14.77801     8.26226    56.30543
   124  O   6.0   -0.26    2.00    1.83    14.39000     5.87971    57.37204
   125  H   1.0    0.04    1.00    1.43    14.07146     9.61087    57.65276
   126  H   1.0    0.04    0.99    1.43    13.71515     8.45775    54.58480
   127  H   1.0    0.04    1.00    1.43    16.74668     8.60491    55.97871
   128  H   1.0    0.12    1.04    1.43    15.09420     4.66087    56.27942
   129  C   4.0    0.01    3.93    3.50    27.89301    40.78511    56.30543
   130  O   6.0   -0.25    2.02    1.83    27.50500    38.40257    57.37204
   131  H   1.0    0.04    1.00    1.43    27.18646    42.13373    57.65276
   132  H   1.0    0.04    0.99    1.43    26.83016    40.98061    54.58480
   133  H   1.0    0.05    1.00    1.43    29.86168    41.12777    55.97871
   134  H   1.0    0.14    1.05    1.44    28.20920    37.18373    56.27942
   135  O   6.0   -0.32    2.06    1.83    28.83863    17.02110    61.03854
   136  H   1.0    0.14    1.00    1.43    30.22666    17.04605    60.00244
   137  H   1.0    0.14    1.01    1.43    27.57866    17.99449    60.51579
   138  O   6.0   -0.30    1.97    1.82    33.15345    16.50249    63.77275
   139  H   1.0    0.15    0.99    1.43    34.59386    17.51961    63.72025
   140  H   1.0    0.16    1.01    1.43    31.91183    17.62542    64.28161
   141  O   6.0   -0.34    2.00    1.83    24.47538    36.74509    61.24215
   142  H   1.0    0.15    1.01    1.43    25.77032    37.87075    61.06856
   143  H   1.0    0.13    1.00    1.43    23.03890    37.67784    61.21177
   144  O   6.0   -0.32    1.96    1.82    33.08948    15.98556    55.65163
   145  H   1.0    0.12    0.98    1.43    34.42858    17.14876    55.42917
   146  H   1.0    0.12    0.96    1.43    32.86227    15.30844    53.94907
   147  O   6.0   -0.29    1.91    1.82    18.72403    32.03674    52.79315
   148  H   1.0    0.13    0.95    1.42    20.31157    32.72948    52.09759
   149  H   1.0    0.14    0.97    1.43    17.27625    32.69946    51.93703
   150  O   6.0   -0.33    1.94    1.82    16.38698    23.50545    60.65517
   151  H   1.0    0.12    1.00    1.43    17.59832    24.36587    59.73276
   152  H   1.0    0.12    0.97    1.43    14.71371    24.22924    60.54124
   153  N   5.0   -0.23    3.19    1.95    35.37332    40.41138    44.08398
   154  C   4.0    0.03    4.22    4.05    32.69872    39.56837    44.03021
   155  C   4.0    0.07    3.19    3.03    31.37549    39.93413    41.50552
   156  O   6.0   -0.30    1.13    1.80    29.66405    38.51534    40.93121
   157  C   4.0   -0.04    4.32    4.24    31.24560    41.06195    46.10152
   158  C   4.0   -0.02    3.55    3.14    32.18624    40.55890    48.77511
   159  C   4.0   -0.04    3.49    3.11    31.82525    38.26376    49.84349
   160  C   4.0   -0.05    3.47    3.10    33.34112    42.50002    50.13623
   161  C   4.0   -0.04    3.40    3.08    32.61126    37.81158    52.30628
   162  C   4.0   -0.05    3.35    3.07    34.09860    42.08415    52.66166
   163  C   4.0   -0.04    3.39    3.08    33.70246    39.73255    53.68034
   164  H   1.0    0.08    1.04    1.43    35.64787    42.19997    44.12712
   165  H   1.0    0.05    1.07    1.44    32.65030    37.57650    44.40783
   166  H   1.0    0.04    1.03    1.43    31.34683    43.06942    45.63853
   167  H   1.0    0.05    1.05    1.44    29.34475    40.44352    45.84976
   168  H   1.0    0.05    1.05    1.44    30.83336    36.82172    48.86926
   169  H   1.0    0.04    1.04    1.43    33.66619    44.24523    49.23884
   170  H   1.0    0.06    1.04    1.43    32.36125    36.00887    53.15015
   171  H   1.0    0.05    1.02    1.43    34.94284    43.62020    53.71987
   172  H   1.0    0.06    1.02    1.43    34.29176    39.41627    55.63832
   173  N   5.0   -0.22    3.18    1.95    12.44330    42.19779    43.59243
   174  C   4.0    0.04    4.19    3.97    11.88177    39.85991    44.95552
   175  C   4.0    0.08    3.19    3.03     9.26012    38.77227    44.28023
   176  O   6.0   -0.28    1.12    1.80     8.94749    36.50861    44.12812
   177  C   4.0   -0.04    4.25    4.11    11.95619    40.38407    47.83986
   178  C   4.0   -0.03    4.18    3.95    11.36845    38.14150    49.56709
   179  C   4.0    0.16    3.21    3.04    13.38628    36.01900    49.40575
   180  O   6.0   -0.30    1.22    1.80    15.57697    36.50545    48.94954
   181  N   5.0   -0.19    3.21    1.96    12.61031    33.67619    49.75755
   182  H   1.0    0.08    1.05    1.44    12.01889    43.73934    44.49846
   183  H   1.0    0.06    1.05    1.44    13.32867    38.46607    44.45775
   184  H   1.0    0.05    1.04    1.43    13.80666    41.10045    48.29262
   185  H   1.0    0.03    1.03    1.43    10.64801    41.91659    48.27209
   186  H   1.0    0.04    1.02    1.43    11.30673    38.77296    51.54156
   187  H   1.0    0.05    1.03    1.43     9.53292    37.30620    49.12388
   188  H   1.0    0.12    1.07    1.44    10.88158    33.21965    50.14903
   189  H   1.0    0.11    1.05    1.44    13.80231    32.31114    49.74461
   190  N   5.0   -0.20    3.28    1.98    23.41934    15.14056    69.11996
   191  C   4.0    0.03    4.41    4.40    23.02814    12.99926    67.47675
   192  C   4.0    0.14    3.46    3.10    24.95692    13.07085    65.27672
   193  O   6.0   -0.29    1.24    1.80    25.43685    15.05329    64.21549
   194  C   4.0   -0.04    4.15    3.90    20.43397    13.02131    66.37383
   195  S   6.0   -0.09    2.31    3.10    17.84325    12.76984    68.63185
   196  H   1.0    0.08    1.05    1.44    22.14573    16.42557    69.28392
   197  H   1.0    0.03    1.07    1.44    23.32601    11.27873    68.57486
   198  H   1.0    0.05    1.10    1.44    20.06131    14.79422    65.45159
   199  H   1.0    0.04    1.08    1.44    20.46333    11.56984    64.97561
   200  H   1.0    0.04    0.99    1.43    15.75749    13.43742    68.04340
   201  N   5.0   -0.09    3.64    2.20    25.93811    10.79238    64.56476
   202  C   4.0    0.03    4.55    4.61    27.94175    10.64640    62.63474
   203  C   4.0    0.15    3.40    3.08    26.93978    10.78702    59.93468
   204  O   6.0   -0.30    1.23    1.80    24.70911    10.32832    59.37530
   205  C   4.0   -0.05    4.37    4.32    29.20040     8.12648    63.25113
   206  C   4.0   -0.05    4.27    4.14    27.04373     6.48021    64.33515
   207  C   4.0   -0.02    4.40    4.39    25.57781     8.36110    65.87300
   208  H   1.0    0.06    1.07    1.44    29.20994    12.18963    63.01130
   209  H   1.0    0.04    1.03    1.43    30.09179     7.27723    61.65584
   210  H   1.0    0.04    1.03    1.43    30.70613     8.39434    64.59471
   211  H   1.0    0.04    1.03    1.43    25.83093     5.74757    62.86821
   212  H   1.0    0.03    1.03    1.43    27.71479     4.96121    65.46906
   213  H   1.0    0.04    1.05    1.44    23.64024     7.98850    65.89474
   214  H   1.0    0.03    1.05    1.44    26.40071     8.41838    67.68816
   215  N   5.0   -0.16    3.41    2.03    28.64288    11.33510    58.23095
   216  C   4.0    0.02    4.29    4.18    28.05904    11.34190    55.52438
   217  C   4.0    0.15    3.30    3.05    26.96445    13.80685    54.48263
   218  O   6.0   -0.31    1.24    1.80    26.21281    13.92568    52.33460
   219  H   1.0    0.08    1.10    1.44    30.37404    11.42163    58.62008
   220  H   1.0    0.04    1.04    1.43    29.71176    10.90189    54.47763
   221  H   1.0    0.06    1.06    1.44    26.67671     9.94872    55.17232
   222  N   5.0   -0.15    3.52    2.09    26.86427    15.74234    56.16710
   223  C   4.0    0.04    4.40    4.38    25.49302    18.05205    55.64742
   224  C   4.0    0.14    3.38    3.07    27.11530    20.44493    55.74901
   225  O   6.0   -0.29    1.25    1.80    26.15015    22.52861    55.56660
   226  C   4.0   -0.04    4.41    4.40    23.27507    18.27775    57.53067
   227  C   4.0   -0.02    4.21    4.03    21.27767    16.23288    57.41127
   228  C   4.0   -0.08    4.16    3.92    19.43735    16.57859    59.53021
   229  C   4.0   -0.07    4.14    3.87    19.94829    16.31715    54.82839
   230  H   1.0    0.10    1.13    1.45    27.51469    15.56987    57.84319
   231  H   1.0    0.06    1.07    1.44    24.72027    18.01017    53.75573
   232  H   1.0    0.04    1.05    1.44    23.88969    18.38617    59.43207
   233  H   1.0    0.06    1.05    1.44    22.39141    20.07882    57.24373
   234  H   1.0    0.06    1.06    1.44    22.11526    14.34875    57.61424
   235  H   1.0    0.05    1.02    1.43    18.64890    18.43237    59.30201
   236  H   1.0    0.05    1.01    1.43    20.39419    16.52352    61.31231
   237  H   1.0    0.04    1.01    1.43    18.08774    15.09584    59.62996
   238  H   1.0    0.05    1.00    1.43    19.14562    18.13864    54.44950
   239  H   1.0    0.04    1.01    1.43    18.59675    14.82954    54.70824
   240  H   1.0    0.05    1.01    1.43    21.29291    15.78349    53.41341
   241  N   5.0   -0.15    3.39    2.01    29.61304    20.11398    56.01110
   242  C   4.0    0.01    4.26    4.13    31.31908    22.34090    56.16657
   243  C   4.0    0.15    3.35    3.06    31.34365    23.60919    58.73195
   244  O   6.0   -0.30    1.28    1.80    32.28636    25.72869    58.94031
   245  H   1.0    0.10    1.10    1.44    30.44614    18.45298    56.05620
   246  H   1.0    0.05    1.05    1.44    33.19645    21.81478    55.75017
   247  H   1.0    0.06    1.05    1.44    30.84443    23.84386    54.91824
   248  N   5.0   -0.14    3.50    2.08    30.33211    22.40697    60.72946
   249  C   4.0    0.04    4.35    4.30    29.99672    23.72155    63.06354
   250  C   4.0    0.09    3.22    3.04    32.23055    23.42490    64.86535
   251  O   6.0   -0.30    1.15    1.80    33.28616    21.39392    65.25866
   252  C   4.0   -0.04    4.37    4.32    27.60551    22.66464    64.40639
   253  C   4.0   -0.02    4.20    4.01    25.14495    23.07630    62.90296
   254  C   4.0   -0.08    4.13    3.85    22.97760    21.75324    64.24247
   255  C   4.0   -0.07    4.13    3.87    24.62147    25.85385    62.36670
   256  H   1.0    0.09    1.13    1.45    29.81562    20.70668    60.73996
   257  H   1.0    0.07    1.09    1.44    29.94976    25.71661    62.69705
   258  H   1.0    0.06    1.04    1.43    27.84720    20.72801    64.83037
   259  H   1.0    0.04    1.04    1.43    27.33434    23.63715    66.17229
   260  H   1.0    0.05    1.09    1.44    25.39397    22.26113    61.09275
   261  H   1.0    0.04    1.02    1.43    21.26058    21.96562    63.26372
   262  H   1.0    0.04    1.01    1.43    22.63976    22.43345    66.12032
   263  H   1.0    0.05    1.01    1.43    23.25973    19.75714    64.41905
   264  H   1.0    0.04    1.02    1.43    22.90329    26.08242    61.36501
   265  H   1.0    0.05    1.02    1.43    26.07663    26.61922    61.22426
   266  H   1.0    0.04    1.01    1.43    24.45285    26.90278    64.07104
   267  N   5.0   -0.22    3.25    1.97    27.80066    31.09751    67.80769
   268  C   4.0    0.03    4.34    4.28    28.25936    32.99615    65.88678
   269  C   4.0    0.15    3.44    3.09    29.08134    31.68885    63.46709
   270  O   6.0   -0.30    1.24    1.80    30.61573    29.90530    63.54144
   271  C   4.0   -0.04    4.36    4.31    30.33776    34.78931    66.83870
   272  C   4.0   -0.02    3.57    3.15    30.95186    36.84358    65.05354
   273  C   4.0   -0.04    3.47    3.10    33.08789    36.69553    63.48023
   274  C   4.0   -0.05    3.48    3.11    29.45852    38.98996    64.88793
   275  C   4.0   -0.03    3.46    3.10    33.62898    38.65582    61.80518
   276  C   4.0   -0.05    3.45    3.10    29.98353    40.90443    63.22361
   277  C   4.0    0.07    3.46    3.10    32.09783    40.79706    61.69085
   278  O   6.0   -0.26    2.13    1.84    32.71403    42.70032    60.12771
   279  H   1.0    0.09    1.05    1.44    29.23635    30.18794    68.42026
   280  H   1.0    0.04    1.07    1.44    26.55208    34.04154    65.62080
   281  H   1.0    0.03    1.05    1.44    29.61057    35.55417    68.57957
   282  H   1.0    0.04    1.03    1.43    32.10742    33.82255    67.27857
   283  H   1.0    0.05    1.05    1.44    34.35978    35.22429    63.63874
   284  H   1.0    0.04    1.04    1.43    27.83900    39.07497    66.11578
   285  H   1.0    0.05    1.06    1.44    35.28688    38.64236    60.79878
   286  H   1.0    0.04    1.04    1.43    28.78974    42.52732    63.14387
   287  H   1.0    0.11    1.06    1.44    31.63795    44.09117    60.43841
   288  N   5.0   -0.15    3.43    2.04    28.08311    32.53023    61.31398
   289  C   4.0    0.04    4.42    4.41    28.76676    31.41980    58.87733
   290  C   4.0    0.16    3.43    3.09    31.21742    32.51536    57.75480
   291  O   6.0   -0.31    1.25    1.80    31.48933    34.76584    57.49365
   292  C   4.0   -0.03    4.33    4.26    26.58185    31.85224    56.95297
   293  C   4.0   -0.01    3.57    3.15    27.25779    30.85169    54.37570
   294  C   4.0   -0.04    3.50    3.11    28.39040    32.26653    52.51422
   295  C   4.0   -0.02    3.49    3.11    26.84953    28.27332    53.89817
   296  C   4.0   -0.02    3.44    3.09    29.19922    31.19935    50.25874
   297  C   4.0   -0.03    3.46    3.10    27.58076    27.18610    51.65961
   298  C   4.0    0.08    3.49    3.11    28.84222    28.67003    49.82147
   299  O   6.0   -0.22    2.17    1.85    29.65160    27.49223    47.64386
   300  H   1.0    0.10    1.12    1.45    26.87078    33.84930    61.32442
   301  H   1.0    0.06    1.07    1.44    29.05240    29.44470    59.35259
   302  H   1.0    0.04    1.05    1.44    24.87303    31.08531    57.59497
   303  H   1.0    0.06    1.04    1.44    26.17346    33.82709    56.83878
   304  H   1.0    0.06    1.06    1.44    28.79123    34.15246    52.76805
   305  H   1.0    0.07    1.05    1.44    26.05441    27.06725    55.26849
   306  H   1.0    0.07    1.06    1.44    30.06741    32.30967    48.91609
   307  H   1.0    0.07    1.05    1.44    27.19189    25.27113    51.43753
   308  H   1.0    0.13    1.15    1.45    29.49963    25.87254    48.06213
   309  N   5.0   -0.15    3.47    2.06    32.89140    30.75984    57.03218
   310  C   4.0    0.04    4.42    4.41    35.04903    31.41765    55.44030
   311  C   4.0    0.20    3.29    3.05    35.03088    29.98167    52.95934
   312  O   6.0   -0.29    1.17    1.80    35.96065    30.97380    51.05871
   313  C   4.0   -0.04    4.37    4.33    37.52142    31.16058    56.80689
   314  C   4.0   -0.02    4.20    4.00    38.19605    33.38547    58.62121
   315  C   4.0   -0.08    4.15    3.90    40.24539    32.58633    60.34916
   316  C   4.0   -0.08    4.12    3.84    38.75132    35.76652    57.12914
   317  O   6.0   -0.24    2.13    1.84    34.19897    27.71126    53.07795
   318  H   1.0    0.12    1.13    1.45    32.52531    29.04861    57.42519
   319  H   1.0    0.06    1.09    1.44    34.89552    33.39592    54.93211
   320  H   1.0    0.05    1.03    1.43    37.47410    29.28744    57.65827
   321  H   1.0    0.05    1.05    1.44    39.05891    31.03763    55.48446
   322  H   1.0    0.05    1.06    1.44    36.51723    33.66535    59.79532
   323  H   1.0    0.04    1.02    1.43    41.91442    32.14017    59.31793
   324  H   1.0    0.04    1.02    1.43    39.66484    30.94517    61.37896
   325  H   1.0    0.03    1.01    1.43    40.67148    34.06679    61.67270
   326  H   1.0    0.05    1.01    1.43    37.19309    36.37130    55.99329
   327  H   1.0    0.04    1.02    1.43    40.37715    35.41467    55.99460
   328  H   1.0    0.04    1.01    1.43    39.24319    37.25886    58.43597
   329  H   1.0    0.17    1.09    1.44    34.34629    26.83236    51.39737
   330  N   5.0   -0.22    3.22    1.96     4.91778    30.75984    57.03218
   331  C   4.0    0.03    4.32    4.23     7.07542    31.41765    55.44030
   332  C   4.0    0.19    3.29    3.05     7.05727    29.98167    52.95934
   333  O   6.0   -0.31    1.20    1.80     7.98704    30.97380    51.05871
   334  C   4.0   -0.05    4.38    4.34     9.54781    31.16058    56.80689
   335  C   4.0   -0.03    4.20    4.00    10.22244    33.38547    58.62121
   336  C   4.0   -0.08    4.15    3.90    12.27177    32.58633    60.34916
   337  C   4.0   -0.08    4.12    3.84    10.77771    35.76652    57.12914
   338  O   6.0   -0.25    2.11    1.84     6.22536    27.71126    53.07795
   339  H   1.0    0.09    1.04    1.43     4.55170    29.04861    57.42519
   340  H   1.0    0.04    1.08    1.44     6.92190    33.39592    54.93211
   341  H   1.0    0.04    1.03    1.43     9.50049    29.28744    57.65827
   342  H   1.0    0.05    1.05    1.44    11.08530    31.03763    55.48446
   343  H   1.0    0.03    1.06    1.44     8.54362    33.66535    59.79532
   344  H   1.0    0.04    1.02    1.43    13.94081    32.14017    59.31793
   345  H   1.0    0.04    1.02    1.43    11.69122    30.94517    61.37896
   346  H   1.0    0.03    1.01    1.43    12.69787    34.06679    61.67270
   347  H   1.0    0.04    1.01    1.43     9.21947    36.37130    55.99329
   348  H   1.0    0.04    1.02    1.43    12.40354    35.41467    55.99460
   349  H   1.0    0.03    1.01    1.43    11.26958    37.25886    58.43597
   350  H   1.0    0.13    1.01    1.43     6.37268    26.83236    51.39737
   351  H   1.0    0.09    1.08    1.44    17.36209    22.22467    34.59252
   352  H   1.0    0.06    1.04    1.43    26.47382    14.19958    40.90887
   353  H   1.0    0.10    1.07    1.44    23.02264     7.26414    45.46908
   354  H   1.0    0.06    1.04    1.44    18.80259     8.80270    40.34746
   355  H   1.0    0.08    1.11    1.44    30.86565    31.59046    34.07220
   356  H   1.0    0.05    1.05    1.44    22.40831    28.56536    34.23850
   357  H   1.0    0.08    1.08    1.44    27.10636    31.83069    69.17624
   358  H   1.0    0.09    1.07    1.44    36.13764    39.78700    45.46908
   359  H   1.0    0.05    1.04    1.44    31.91759    41.32556    40.34746
   360  H   1.0    0.09    1.07    1.44    14.10838    42.27161    43.25384
   361  H   1.0    0.05    1.04    1.44     7.80631    39.93768    43.96507
   362  H   1.0    0.09    1.08    1.44    23.64858    14.59753    70.71531
   363  H   1.0    0.06    1.05    1.44    32.90230    24.92800    65.79300
   364  H   1.0    0.08    1.08    1.44     5.09562    31.48812    58.55879

  Z AO/shell   Hii/eV     exponent
  1     Wed Apr 25 08:07:45 CEST 2018   EN: 2.200 GM2: 0.406  GM3: 0.0800  RAES: 1.40
     1s    -10.707211    1.230000
  6     Wed Apr 25 08:07:45 CEST 2018   EN: 2.550 GM2: 0.538  GM3: 0.1500  RAES: 3.00
     2s    -13.970922    2.096432
     2p    -10.063292    1.800000
  7     Wed Apr 25 08:07:45 CEST 2018   EN: 3.040 GM2: 0.461  GM3:-0.0640  RAES: 1.90
     2s    -16.686243    2.339881
     2p    -12.523956    2.014332
  8     Wed Apr 25 08:07:45 CEST 2018   EN: 3.440 GM2: 0.452  GM3:-0.0517  RAES: 1.80
     2s    -20.229985    2.439742
     2p    -15.503117    2.137023
 16     Tue Apr 24 11:44:34 CEST 2018   EN: 2.580 GM2: 0.340  GM3:-0.0502  RAES: 3.10
     3s    -20.029654    1.981333
     3p    -11.377694    2.025643
     3d     -0.420282    1.702555
 no old-style atom pair restraining (fixing) potential

molecular fragmentation (1/2 indicates fragments):
111111111111111111111111122222222222222222222222222222222222222222222222
222222222222222222222222222222222222222222222222222222222222222222222222
222222222222222222222222222222222222222222222222222222222222222222222222
222222222222222222222222222222222222222222222222222222222222222222222222
222222222222222222222222222222222222222222222222222222222222221122222222
2222
# atoms in fragment 1/2:    27   337
 fragment masses (1/2) :      219.26     2320.69
CMA distance (Bohr)    :  15.788
constraining FC (au)   :  0.0500
           ------------------------------------------------- 
          |        Self-Consistent Charge Iterations        |
           ------------------------------------------------- 

 Ncao       : 901
 Nao        : 899
 Nshell     : 541
 Nel        : 998
 T(el)      :   500.0
 intcut     :    35.0
 scfconv/Eh :  0.100E-06
   qconv/e  :  0.100E-04
 intneglect :  0.100E-08
 broydamp   :      0.400
 iter      E             dE          RMSdq      gap      omega  full diag
   1   -574.8548907 -0.574855E+03  0.492E+00    1.22       0.0  T
   2   -576.1156777 -0.126079E+01  0.239E+00    0.01       1.0  T
   3   -576.2299716 -0.114294E+00  0.151E+00    0.84       1.0  T
   4   -576.4813031 -0.251332E+00  0.546E-01    0.47       1.0  T
   5   -576.4930440 -0.117409E-01  0.337E-01    0.70       1.0  T
   6   -576.4955642 -0.252025E-02  0.222E-01    0.45       1.0  T
   7   -576.4585031  0.370611E-01  0.305E-01    0.11       1.0  T
   8   -576.4986692 -0.401661E-01  0.120E-01    0.80       1.0  T
   9   -576.5002827 -0.161355E-02  0.833E-02    0.63       1.0  T
  10   -576.5007572 -0.474484E-03  0.659E-02    0.58       1.0  T
  11   -576.5013012 -0.544007E-03  0.476E-02    0.48       1.0  T
  12   -576.5017330 -0.431762E-03  0.297E-02    0.40       1.0  T
  13   -576.5020219 -0.288892E-03  0.308E-03    0.33       1.7  T
  14   -576.5020230 -0.109614E-05  0.126E-03    0.33       4.1  T
  15   -576.5020220  0.941186E-06  0.187E-03    0.33       2.8  T
  16   -576.5020230 -0.100519E-05  0.778E-04    0.33       6.7  T
  17   -576.5020232 -0.177165E-06  0.334E-04    0.33      15.7  T
  18   -576.5020232 -0.246079E-07  0.205E-04    0.33      25.6  T
  19   -576.5020232 -0.150503E-07  0.174E-05    0.33     300.9  T
  20   -576.5020232  0.342197E-10  0.142E-05    0.33     368.7  T
speedup  6.61
cpu  time for SCC   42.58 s
wall time for SCC    6.44 s

   *** convergence criteria satisfied after 20 iterations ***

          eigenvalues
 #    :         487        488        489        490        491        492        493        494
 occ. :        2.000      2.000      2.000      2.000      2.000      2.000      2.000      2.000
 eps  :       -10.235    -10.169    -10.148    -10.131    -10.063    -10.059     -9.989     -9.805
 #    :         495        496        497        498        499        500        501        502
 occ. :        2.000      2.000      2.000      2.000      1.957      0.043      0.000      0.000
 eps  :        -9.792     -9.656     -9.522     -9.446     -8.581     -8.252     -7.984     -7.966
 #    :         503        504        505        506        507        508        509        510
 occ. :        0.000      0.000      0.000      0.000      0.000      0.000      0.000      0.000
 eps  :        -7.950     -7.782     -7.616     -7.588     -6.926     -6.694     -6.677     -6.644


   #   Z            q   n(s)   n(p)   n(d)      C6AA      α(0)
   1   7 N     -0.390  1.310  4.079  0.000    30.088     8.147
   2   6 C      0.042  1.044  2.914  0.000    19.845     6.339
   3   6 C      0.272  1.042  2.686  0.000    22.395     7.750
   4   8 O     -0.493  1.755  4.738  0.000    23.625     6.517
   5   6 C      0.004  1.061  2.935  0.000    20.521     6.450
   6  16 S     -0.406  1.906  4.455  0.045   159.019    21.224
   7   1 H      0.184  0.816  0.000  0.000     1.193     1.711
   8   1 H      0.058  0.942  0.000  0.000     2.222     2.331
   9   1 H      0.043  0.957  0.000  0.000     2.414     2.429
  10   1 H      0.073  0.927  0.000  0.000     2.056     2.242
  11   1 H      0.255  0.745  0.000  0.000     0.859     1.449
  12   7 N     -0.175  1.233  3.943  0.000    24.795     7.395
  13   6 C      0.040  1.051  2.909  0.000    19.905     6.353
  14   6 C      0.194  1.085  2.720  0.000    23.852     7.999
  15   8 O     -0.358  1.758  4.600  0.000    20.857     6.123
  16   6 C     -0.094  1.050  3.045  0.000    22.289     6.720
  17   6 C      0.289  1.028  2.682  0.000    22.093     7.696
  18   8 O     -0.493  1.735  4.758  0.000    23.636     6.518
  19   7 N     -0.276  1.250  4.027  0.000    27.144     7.738
  20   1 H      0.217  0.783  0.000  0.000     1.021     1.583
  21   1 H      0.082  0.918  0.000  0.000     1.960     2.189
  22   1 H      0.066  0.934  0.000  0.000     2.127     2.280
  23   1 H      0.082  0.918  0.000  0.000     1.959     2.189
  24   1 H      0.229  0.771  0.000  0.000     0.968     1.541
  25   1 H      0.236  0.764  0.000  0.000     0.940     1.518
  26   7 N     -0.405  1.310  4.095  0.000    30.509     8.203
  27   6 C      0.033  1.063  2.904  0.000    20.046     6.378
  28   6 C      0.206  1.084  2.710  0.000    23.627     7.960
  29   8 O     -0.377  1.747  4.629  0.000    21.218     6.176
  30   6 C     -0.067  1.055  3.012  0.000    21.766     6.641
  31   6 C      0.018  1.078  2.905  0.000    27.609     8.619
  32   6 C     -0.042  1.071  2.971  0.000    29.039     8.837
  33   6 C     -0.037  1.083  2.954  0.000    28.914     8.818
  34   6 C     -0.039  1.075  2.964  0.000    28.979     8.828
  35   6 C     -0.030  1.083  2.947  0.000    28.752     8.793
  36   6 C     -0.031  1.077  2.954  0.000    28.768     8.796
  37   1 H      0.173  0.827  0.000  0.000     1.256     1.756
  38   1 H      0.073  0.927  0.000  0.000     2.056     2.242
  39   1 H      0.032  0.968  0.000  0.000     2.564     2.504
  40   1 H      0.054  0.946  0.000  0.000     2.264     2.353
  41   1 H      0.047  0.953  0.000  0.000     2.358     2.401
  42   1 H      0.028  0.972  0.000  0.000     2.612     2.527
  43   1 H      0.048  0.952  0.000  0.000     2.344     2.394
  44   1 H      0.029  0.971  0.000  0.000     2.603     2.523
  45   1 H      0.035  0.965  0.000  0.000     2.522     2.483
  46   7 N     -0.310  1.284  4.026  0.000    27.971     7.855
  47   6 C      0.020  1.062  2.918  0.000    20.241     6.406
  48   6 C      0.275  1.047  2.679  0.000    22.358     7.743
  49   8 O     -0.499  1.743  4.756  0.000    23.771     6.537
  50   6 C     -0.070  1.050  3.020  0.000    21.809     6.644
  51   6 C     -0.064  1.043  3.021  0.000    21.724     6.634
  52   6 C      0.006  1.045  2.948  0.000    20.515     6.456
  53   1 H      0.050  0.950  0.000  0.000     2.323     2.383
  54   1 H      0.037  0.963  0.000  0.000     2.486     2.466
  55   1 H      0.059  0.941  0.000  0.000     2.206     2.322
  56   1 H      0.049  0.951  0.000  0.000     2.329     2.386
  57   1 H      0.047  0.953  0.000  0.000     2.362     2.403
  58   1 H      0.033  0.967  0.000  0.000     2.547     2.496
  59   1 H      0.042  0.958  0.000  0.000     2.428     2.437
  60   7 N     -0.187  1.223  3.964  0.000    25.045     7.433
  61   6 C     -0.023  1.031  2.992  0.000    21.042     6.541
  62   6 C      0.276  1.047  2.677  0.000    22.340     7.740
  63   8 O     -0.505  1.758  4.747  0.000    23.898     6.554
  64   1 H      0.221  0.779  0.000  0.000     1.007     1.572
  65   1 H      0.075  0.925  0.000  0.000     2.036     2.231
  66   1 H      0.097  0.903  0.000  0.000     1.815     2.106
  67   7 N     -0.174  1.223  3.951  0.000    24.772     7.392
  68   6 C      0.031  1.045  2.925  0.000    20.064     6.378
  69   6 C      0.262  1.052  2.686  0.000    22.582     7.782
  70   8 O     -0.474  1.732  4.743  0.000    23.221     6.461
  71   6 C     -0.110  1.055  3.055  0.000    22.594     6.766
  72   6 C      0.287  1.037  2.676  0.000    22.132     7.703
  73   8 O     -0.499  1.772  4.727  0.000    23.757     6.535
  74   7 N     -0.276  1.232  4.044  0.000    27.143     7.738
  75   1 H      0.217  0.783  0.000  0.000     1.022     1.584
  76   1 H      0.099  0.901  0.000  0.000     1.796     2.095
  77   1 H      0.107  0.893  0.000  0.000     1.722     2.052
  78   1 H      0.087  0.913  0.000  0.000     1.908     2.160
  79   1 H      0.239  0.761  0.000  0.000     0.926     1.507
  80   1 H      0.228  0.772  0.000  0.000     0.975     1.547
  81   7 N     -0.132  1.262  3.870  0.000    23.859     7.255
  82   6 C      0.013  1.060  2.927  0.000    20.341     6.418
  83   6 C      0.260  1.050  2.689  0.000    22.615     7.788
  84   8 O     -0.518  1.758  4.760  0.000    24.183     6.593
  85   6 C     -0.071  1.041  3.030  0.000    21.828     6.646
  86   6 C     -0.072  1.031  3.041  0.000    21.841     6.647
  87   6 C     -0.008  1.051  2.957  0.000    20.758     6.493
  88   1 H      0.088  0.912  0.000  0.000     1.902     2.157
  89   1 H      0.069  0.931  0.000  0.000     2.100     2.266
  90   1 H      0.088  0.912  0.000  0.000     1.900     2.155
  91   1 H      0.049  0.951  0.000  0.000     2.327     2.386
  92   1 H      0.074  0.926  0.000  0.000     2.042     2.234
  93   1 H      0.054  0.946  0.000  0.000     2.265     2.353
  94   1 H      0.093  0.907  0.000  0.000     1.846     2.124
  95   7 N     -0.176  1.221  3.956  0.000    24.820     7.399
  96   6 C      0.043  1.045  2.911  0.000    19.841     6.341
  97   6 C      0.255  1.051  2.694  0.000    22.719     7.806
  98   8 O     -0.509  1.755  4.753  0.000    23.975     6.565
  99   6 C     -0.083  1.057  3.026  0.000    22.070     6.685
 100   6 C      0.372  1.009  2.619  0.000    20.702     7.446
 101   8 O     -0.613  1.739  4.874  0.000    26.435     6.893
 102   8 O     -0.649  1.785  4.864  0.000    27.341     7.011
 103   1 H      0.209  0.791  0.000  0.000     1.061     1.613
 104   1 H      0.075  0.925  0.000  0.000     2.027     2.226
 105   1 H      0.031  0.969  0.000  0.000     2.571     2.507
 106   1 H      0.054  0.946  0.000  0.000     2.275     2.359
 107   7 N     -0.160  1.226  3.933  0.000    24.455     7.345
 108   6 C     -0.027  1.036  2.991  0.000    21.116     6.553
 109   6 C      0.189  1.081  2.731  0.000    23.961     8.017
 110   8 O     -0.364  1.757  4.607  0.000    20.973     6.140
 111   1 H      0.234  0.766  0.000  0.000     0.950     1.526
 112   1 H      0.125  0.875  0.000  0.000     1.573     1.961
 113   1 H      0.118  0.882  0.000  0.000     1.629     1.996
 114   6 C     -0.121  1.189  2.932  0.000    31.075     9.137
 115   8 O     -0.489  1.908  4.581  0.000    23.562     6.507
 116   1 H      0.228  0.772  0.000  0.000     0.962     1.532
 117   1 H      0.173  0.827  0.000  0.000     1.237     1.736
 118   1 H     -0.093  1.093  0.000  0.000     9.774     5.499
 119   1 H      0.355  0.645  0.000  0.000     1.412     2.173
 120   8 O     -0.645  1.768  4.877  0.000    26.284     6.920
 121   1 H      0.302  0.698  0.000  0.000     0.714     1.327
 122   1 H      0.339  0.661  0.000  0.000     0.614     1.231
 123   6 C      0.037  1.015  2.948  0.000    20.358     6.497
 124   8 O     -0.483  1.711  4.772  0.000    22.521     6.406
 125   1 H      0.050  0.950  0.000  0.000     2.315     2.379
 126   1 H      0.029  0.971  0.000  0.000     2.598     2.520
 127   1 H      0.033  0.967  0.000  0.000     2.545     2.495
 128   1 H      0.329  0.671  0.000  0.000     0.640     1.257
 129   6 C      0.033  1.015  2.952  0.000    20.418     6.507
 130   8 O     -0.461  1.694  4.767  0.000    22.063     6.341
 131   1 H      0.056  0.944  0.000  0.000     2.250     2.346
 132   1 H      0.025  0.975  0.000  0.000     2.663     2.552
 133   1 H      0.040  0.960  0.000  0.000     2.448     2.447
 134   1 H      0.300  0.700  0.000  0.000     0.720     1.333
 135   8 O     -0.599  1.708  4.891  0.000    25.147     6.768
 136   1 H      0.327  0.673  0.000  0.000     0.645     1.261
 137   1 H      0.304  0.696  0.000  0.000     0.709     1.322
 138   8 O     -0.641  1.740  4.901  0.000    26.189     6.907
 139   1 H      0.322  0.678  0.000  0.000     0.657     1.273
 140   1 H      0.310  0.690  0.000  0.000     0.691     1.305
 141   8 O     -0.644  1.722  4.922  0.000    26.248     6.915
 142   1 H      0.309  0.691  0.000  0.000     0.694     1.308
 143   1 H      0.341  0.659  0.000  0.000     0.609     1.225
 144   8 O     -0.620  1.760  4.860  0.000    25.674     6.839
 145   1 H      0.331  0.669  0.000  0.000     0.635     1.251
 146   1 H      0.317  0.683  0.000  0.000     0.671     1.287
 147   8 O     -0.626  1.752  4.874  0.000    25.812     6.857
 148   1 H      0.320  0.680  0.000  0.000     0.664     1.281
 149   1 H      0.304  0.696  0.000  0.000     0.709     1.323
 150   8 O     -0.653  1.743  4.910  0.000    26.480     6.945
 151   1 H      0.300  0.700  0.000  0.000     0.720     1.333
 152   1 H      0.338  0.662  0.000  0.000     0.617     1.234
 153   7 N     -0.404  1.311  4.092  0.000    30.485     8.200
 154   6 C      0.034  1.061  2.905  0.000    20.020     6.374
 155   6 C      0.201  1.083  2.716  0.000    23.723     7.977
 156   8 O     -0.377  1.757  4.620  0.000    21.227     6.177
 157   6 C     -0.072  1.056  3.016  0.000    21.876     6.657
 158   6 C      0.014  1.076  2.909  0.000    27.691     8.632
 159   6 C     -0.038  1.069  2.969  0.000    28.940     8.823
 160   6 C     -0.048  1.083  2.965  0.000    29.196     8.861
 161   6 C     -0.032  1.075  2.957  0.000    28.806     8.802
 162   6 C     -0.035  1.086  2.949  0.000    28.882     8.813
 163   6 C     -0.025  1.078  2.947  0.000    28.639     8.776
 164   1 H      0.179  0.821  0.000  0.000     1.221     1.731
 165   1 H      0.058  0.942  0.000  0.000     2.225     2.332
 166   1 H      0.053  0.947  0.000  0.000     2.279     2.361
 167   1 H      0.049  0.951  0.000  0.000     2.330     2.387
 168   1 H      0.022  0.978  0.000  0.000     2.697     2.568
 169   1 H      0.051  0.949  0.000  0.000     2.304     2.374
 170   1 H      0.027  0.973  0.000  0.000     2.624     2.533
 171   1 H      0.050  0.950  0.000  0.000     2.315     2.379
 172   1 H      0.040  0.960  0.000  0.000     2.448     2.447
 173   7 N     -0.399  1.316  4.083  0.000    30.350     8.182
 174   6 C      0.034  1.061  2.905  0.000    20.023     6.375
 175   6 C      0.203  1.090  2.708  0.000    23.685     7.970
 176   8 O     -0.374  1.756  4.619  0.000    21.173     6.169
 177   6 C     -0.065  1.054  3.011  0.000    21.745     6.639
 178   6 C     -0.099  1.062  3.037  0.000    22.387     6.737
 179   6 C      0.291  1.037  2.672  0.000    22.056     7.689
 180   8 O     -0.510  1.744  4.766  0.000    24.002     6.569
 181   7 N     -0.282  1.239  4.043  0.000    27.283     7.758
 182   1 H      0.178  0.822  0.000  0.000     1.224     1.733
 183   1 H      0.052  0.948  0.000  0.000     2.293     2.368
 184   1 H      0.067  0.933  0.000  0.000     2.121     2.277
 185   1 H      0.057  0.943  0.000  0.000     2.234     2.337
 186   1 H      0.076  0.924  0.000  0.000     2.019     2.222
 187   1 H      0.052  0.948  0.000  0.000     2.300     2.372
 188   1 H      0.228  0.772  0.000  0.000     0.972     1.545
 189   1 H      0.212  0.788  0.000  0.000     1.045     1.601
 190   7 N     -0.391  1.288  4.103  0.000    30.133     8.153
 191   6 C      0.046  1.050  2.904  0.000    19.801     6.335
 192   6 C      0.254  1.056  2.690  0.000    22.725     7.806
 193   8 O     -0.465  1.745  4.720  0.000    23.016     6.432
 194   6 C      0.020  1.049  2.930  0.000    20.225     6.401
 195  16 S     -0.391  1.895  4.456  0.040   158.297    21.176
 196   1 H      0.171  0.829  0.000  0.000     1.268     1.764
 197   1 H      0.038  0.962  0.000  0.000     2.473     2.459
 198   1 H      0.044  0.956  0.000  0.000     2.400     2.423
 199   1 H      0.037  0.963  0.000  0.000     2.484     2.465
 200   1 H      0.245  0.755  0.000  0.000     0.895     1.480
 201   7 N     -0.104  1.247  3.857  0.000    23.284     7.167
 202   6 C      0.010  1.065  2.925  0.000    20.397     6.428
 203   6 C      0.277  1.037  2.686  0.000    22.317     7.736
 204   8 O     -0.499  1.758  4.741  0.000    23.758     6.535
 205   6 C     -0.077  1.050  3.027  0.000    21.936     6.662
 206   6 C     -0.072  1.044  3.029  0.000    21.865     6.654
 207   6 C     -0.011  1.039  2.972  0.000    20.802     6.499
 208   1 H      0.086  0.914  0.000  0.000     1.920     2.167
 209   1 H      0.064  0.936  0.000  0.000     2.150     2.293
 210   1 H      0.073  0.927  0.000  0.000     2.048     2.238
 211   1 H      0.060  0.940  0.000  0.000     2.198     2.319
 212   1 H      0.077  0.923  0.000  0.000     2.006     2.215
 213   1 H      0.067  0.933  0.000  0.000     2.124     2.279
 214   1 H      0.070  0.930  0.000  0.000     2.080     2.255
 215   7 N     -0.173  1.222  3.950  0.000    24.740     7.387
 216   6 C     -0.046  1.044  3.002  0.000    21.449     6.604
 217   6 C      0.280  1.038  2.683  0.000    22.265     7.726
 218   8 O     -0.472  1.739  4.733  0.000    23.181     6.455
 219   1 H      0.227  0.773  0.000  0.000     0.979     1.550
 220   1 H      0.107  0.893  0.000  0.000     1.723     2.052
 221   1 H      0.107  0.893  0.000  0.000     1.723     2.053
 222   7 N     -0.208  1.238  3.970  0.000    25.534     7.505
 223   6 C      0.018  1.056  2.926  0.000    20.281     6.413
 224   6 C      0.266  1.042  2.692  0.000    22.517     7.770
 225   8 O     -0.467  1.755  4.712  0.000    23.068     6.439
 226   6 C     -0.067  1.042  3.025  0.000    21.770     6.640
 227   6 C     -0.001  1.048  2.953  0.000    20.562     6.450
 228   6 C     -0.115  1.026  3.088  0.000    22.733     6.795
 229   6 C     -0.118  1.031  3.087  0.000    22.811     6.808
 230   1 H      0.223  0.777  0.000  0.000     0.995     1.562
 231   1 H      0.081  0.919  0.000  0.000     1.969     2.194
 232   1 H      0.043  0.957  0.000  0.000     2.413     2.429
 233   1 H      0.067  0.933  0.000  0.000     2.123     2.278
 234   1 H      0.026  0.974  0.000  0.000     2.649     2.545
 235   1 H      0.054  0.946  0.000  0.000     2.273     2.358
 236   1 H      0.032  0.968  0.000  0.000     2.559     2.501
 237   1 H      0.045  0.955  0.000  0.000     2.377     2.411
 238   1 H      0.047  0.953  0.000  0.000     2.355     2.400
 239   1 H      0.042  0.958  0.000  0.000     2.427     2.436
 240   1 H      0.028  0.972  0.000  0.000     2.620     2.531
 241   7 N     -0.212  1.247  3.965  0.000    25.622     7.518
 242   6 C     -0.040  1.043  2.996  0.000    21.348     6.590
 243   6 C      0.270  1.041  2.689  0.000    22.446     7.758
 244   8 O     -0.495  1.749  4.746  0.000    23.671     6.523
 245   1 H      0.228  0.772  0.000  0.000     0.974     1.546
 246   1 H      0.103  0.897  0.000  0.000     1.762     2.076
 247   1 H      0.090  0.910  0.000  0.000     1.882     2.145
 248   7 N     -0.172  1.220  3.951  0.000    24.714     7.383
 249   6 C      0.023  1.051  2.926  0.000    20.182     6.396
 250   6 C      0.198  1.093  2.709  0.000    23.787     7.987
 251   8 O     -0.360  1.743  4.617  0.000    20.899     6.129
 252   6 C     -0.083  1.056  3.027  0.000    22.073     6.687
 253   6 C     -0.006  1.046  2.960  0.000    20.649     6.463
 254   6 C     -0.121  1.023  3.098  0.000    22.866     6.816
 255   6 C     -0.117  1.022  3.095  0.000    22.789     6.805
 256   1 H      0.223  0.777  0.000  0.000     0.995     1.562
 257   1 H      0.099  0.901  0.000  0.000     1.794     2.094
 258   1 H      0.075  0.925  0.000  0.000     2.028     2.227
 259   1 H      0.068  0.932  0.000  0.000     2.108     2.271
 260   1 H      0.026  0.974  0.000  0.000     2.645     2.543
 261   1 H      0.050  0.950  0.000  0.000     2.323     2.383
 262   1 H      0.048  0.952  0.000  0.000     2.351     2.398
 263   1 H      0.045  0.955  0.000  0.000     2.384     2.414
 264   1 H      0.041  0.959  0.000  0.000     2.437     2.441
 265   1 H      0.027  0.973  0.000  0.000     2.627     2.535
 266   1 H      0.054  0.946  0.000  0.000     2.273     2.358
 267   7 N     -0.392  1.302  4.090  0.000    30.163     8.157
 268   6 C      0.033  1.055  2.912  0.000    20.034     6.374
 269   6 C      0.269  1.048  2.683  0.000    22.456     7.760
 270   8 O     -0.513  1.755  4.758  0.000    24.072     6.578
 271   6 C     -0.071  1.050  3.021  0.000    21.850     6.653
 272   6 C     -0.010  1.079  2.932  0.000    28.271     8.722
 273   6 C     -0.045  1.080  2.966  0.000    29.125     8.850
 274   6 C     -0.048  1.079  2.969  0.000    29.194     8.861
 275   6 C     -0.060  1.068  2.992  0.000    29.489     8.905
 276   6 C     -0.080  1.072  3.008  0.000    29.989     8.980
 277   6 C      0.147  1.040  2.814  0.000    24.809     8.163
 278   8 O     -0.424  1.705  4.719  0.000    21.316     6.233
 279   1 H      0.166  0.834  0.000  0.000     1.297     1.784
 280   1 H      0.056  0.944  0.000  0.000     2.248     2.345
 281   1 H      0.053  0.947  0.000  0.000     2.284     2.363
 282   1 H      0.040  0.960  0.000  0.000     2.455     2.450
 283   1 H      0.030  0.970  0.000  0.000     2.585     2.514
 284   1 H      0.044  0.956  0.000  0.000     2.395     2.420
 285   1 H      0.049  0.951  0.000  0.000     2.332     2.388
 286   1 H      0.043  0.957  0.000  0.000     2.408     2.427
 287   1 H      0.346  0.654  0.000  0.000     0.598     1.215
 288   7 N     -0.184  1.239  3.944  0.000    24.981     7.423
 289   6 C      0.025  1.065  2.909  0.000    20.152     6.393
 290   6 C      0.277  1.039  2.683  0.000    22.307     7.734
 291   8 O     -0.456  1.726  4.730  0.000    22.834     6.407
 292   6 C     -0.085  1.043  3.043  0.000    22.118     6.694
 293   6 C     -0.002  1.078  2.924  0.000    28.072     8.691
 294   6 C     -0.050  1.071  2.980  0.000    29.253     8.870
 295   6 C     -0.040  1.083  2.957  0.000    28.986     8.829
 296   6 C     -0.062  1.063  2.999  0.000    29.544     8.913
 297   6 C     -0.064  1.072  2.992  0.000    29.589     8.920
 298   6 C      0.134  1.049  2.817  0.000    25.068     8.206
 299   8 O     -0.434  1.710  4.724  0.000    21.511     6.261
 300   1 H      0.231  0.769  0.000  0.000     0.962     1.536
 301   1 H      0.059  0.941  0.000  0.000     2.213     2.326
 302   1 H      0.069  0.931  0.000  0.000     2.095     2.263
 303   1 H      0.083  0.917  0.000  0.000     1.952     2.185
 304   1 H      0.058  0.942  0.000  0.000     2.228     2.334
 305   1 H      0.057  0.943  0.000  0.000     2.234     2.337
 306   1 H      0.056  0.944  0.000  0.000     2.251     2.346
 307   1 H      0.027  0.973  0.000  0.000     2.627     2.534
 308   1 H      0.308  0.692  0.000  0.000     0.695     1.309
 309   7 N     -0.193  1.238  3.955  0.000    25.190     7.454
 310   6 C      0.026  1.050  2.925  0.000    20.147     6.391
 311   6 C      0.356  1.019  2.624  0.000    20.949     7.491
 312   8 O     -0.488  1.754  4.734  0.000    23.527     6.503
 313   6 C     -0.075  1.052  3.022  0.000    21.914     6.663
 314   6 C     -0.003  1.050  2.954  0.000    20.606     6.457
 315   6 C     -0.120  1.027  3.093  0.000    22.844     6.812
 316   6 C     -0.119  1.031  3.088  0.000    22.820     6.810
 317   8 O     -0.367  1.690  4.677  0.000    20.228     6.071
 318   1 H      0.218  0.782  0.000  0.000     1.019     1.581
 319   1 H      0.090  0.910  0.000  0.000     1.875     2.141
 320   1 H      0.051  0.949  0.000  0.000     2.306     2.375
 321   1 H      0.053  0.947  0.000  0.000     2.281     2.362
 322   1 H      0.030  0.970  0.000  0.000     2.588     2.516
 323   1 H      0.049  0.951  0.000  0.000     2.333     2.389
 324   1 H      0.042  0.958  0.000  0.000     2.417     2.431
 325   1 H      0.052  0.948  0.000  0.000     2.294     2.369
 326   1 H      0.044  0.956  0.000  0.000     2.402     2.424
 327   1 H      0.049  0.951  0.000  0.000     2.337     2.391
 328   1 H      0.048  0.952  0.000  0.000     2.339     2.392
 329   1 H      0.377  0.623  0.000  0.000     0.530     1.144
 330   7 N     -0.405  1.299  4.106  0.000    30.505     8.203
 331   6 C      0.030  1.049  2.921  0.000    20.075     6.382
 332   6 C      0.358  1.022  2.620  0.000    20.920     7.486
 333   8 O     -0.507  1.757  4.750  0.000    23.940     6.560
 334   6 C     -0.077  1.054  3.023  0.000    21.969     6.671
 335   6 C     -0.008  1.053  2.955  0.000    20.679     6.468
 336   6 C     -0.122  1.027  3.095  0.000    22.882     6.818
 337   6 C     -0.122  1.031  3.091  0.000    22.881     6.819
 338   8 O     -0.353  1.696  4.657  0.000    19.971     6.033
 339   1 H      0.175  0.825  0.000  0.000     1.241     1.745
 340   1 H      0.067  0.933  0.000  0.000     2.117     2.275
 341   1 H      0.045  0.955  0.000  0.000     2.389     2.417
 342   1 H      0.038  0.962  0.000  0.000     2.480     2.463
 343   1 H      0.033  0.967  0.000  0.000     2.542     2.493
 344   1 H      0.045  0.955  0.000  0.000     2.377     2.411
 345   1 H      0.046  0.954  0.000  0.000     2.375     2.410
 346   1 H      0.049  0.951  0.000  0.000     2.334     2.389
 347   1 H      0.042  0.958  0.000  0.000     2.416     2.431
 348   1 H      0.041  0.959  0.000  0.000     2.436     2.441
 349   1 H      0.050  0.950  0.000  0.000     2.325     2.384
 350   1 H      0.402  0.598  0.000  0.000     0.481     1.090
 351   1 H      0.197  0.803  0.000  0.000     1.123     1.660
 352   1 H      0.077  0.923  0.000  0.000     2.009     2.217
 353   1 H      0.179  0.821  0.000  0.000     1.219     1.729
 354   1 H      0.065  0.935  0.000  0.000     2.135     2.285
 355   1 H      0.180  0.820  0.000  0.000     1.212     1.724
 356   1 H      0.103  0.897  0.000  0.000     1.755     2.072
 357   1 H      0.188  0.812  0.000  0.000     1.167     1.692
 358   1 H      0.181  0.819  0.000  0.000     1.210     1.723
 359   1 H      0.078  0.922  0.000  0.000     1.999     2.211
 360   1 H      0.186  0.814  0.000  0.000     1.180     1.702
 361   1 H      0.080  0.920  0.000  0.000     1.974     2.197
 362   1 H      0.186  0.814  0.000  0.000     1.178     1.700
 363   1 H      0.078  0.922  0.000  0.000     1.997     2.210
 364   1 H      0.186  0.814  0.000  0.000     1.182     1.703

 Mol. C6AA /au·bohr⁶  :    1249641.105017
 Mol. C8AA /au·bohr⁸  :   28266638.037320
 Mol. α(0) /au        :       1685.854944

 
 Wiberg/Mayer (AO) data. WBOs > 0.1 written file <wbo>
 largest (>0.05) Wiberg bond orders for each atom
           total WBO             WBO to atom ...
     1  N   2.998    C    2 1.029    H  351 0.947    H    7 0.929
     2  C   3.991    N    1 1.029    C    5 0.987    H    8 0.940    C    3 0.940
     3  C   3.942    O    4 1.616    N   12 1.314    C    2 0.940
     4  O   1.957    C    3 1.616    N   12 0.190
     5  C   3.970    C    2 0.987    H    9 0.975    H   10 0.970    S    6 0.960
     6  S   1.933    C    5 0.960    H   11 0.906
     7  H   0.966    N    1 0.929
     8  H   0.995    C    2 0.940
     9  H   0.998    C    5 0.975
    10  H   0.994    C    5 0.970
    11  H   0.935    S    6 0.906
    12  N   3.472    C    3 1.314    C   13 0.963    H   20 0.922    O    4 0.190
    13  C   3.965    C   14 0.981    N   12 0.963    C   16 0.955    H   21 0.951    O   15 0.050
    14  C   3.867    O   15 1.870    C   13 0.981    H  352 0.957
    15  O   2.004    C   14 1.870    C   13 0.050
    16  C   3.987    H   22 0.972    H   23 0.961    C   17 0.958    C   13 0.955    O   18 0.054
    17  C   3.953    O   18 1.608    N   19 1.357    C   16 0.958
    18  O   1.944    C   17 1.608    N   19 0.205    C   16 0.054
    19  N   3.436    C   17 1.357    H   24 0.906    H   25 0.904    O   18 0.205
    20  H   0.952    N   12 0.922
    21  H   0.993    C   13 0.951
    22  H   0.995    C   16 0.972
    23  H   0.993    C   16 0.961
    24  H   0.947    N   19 0.906
    25  H   0.944    N   19 0.904
    26  N   2.983    C   27 1.013    H  353 0.954    H   37 0.940
    27  C   3.985    N   26 1.013    C   28 0.994    H   38 0.955    C   30 0.931    O   29 0.060
    28  C   3.898    O   29 1.883    C   27 0.994    H  354 0.953
    29  O   2.029    C   28 1.883    C   27 0.060
    30  C   3.991    C   31 1.001    H   39 0.976    H   40 0.967    C   27 0.931
    31  C   3.988    C   32 1.439    C   33 1.406    C   30 1.001    C   36 0.097
    32  C   3.993    C   31 1.439    C   34 1.424    H   41 0.968    C   35 0.111
    33  C   3.990    C   35 1.430    C   31 1.406    H   42 0.971    C   34 0.123
    34  C   3.991    C   36 1.439    C   32 1.424    H   43 0.971    C   33 0.123
    35  C   3.991    C   36 1.448    C   33 1.430    H   44 0.968    C   32 0.111
    36  C   3.991    C   35 1.448    C   34 1.439    H   45 0.967    C   31 0.097
    37  H   0.970    N   26 0.940
    38  H   0.995    C   27 0.955
    39  H   0.999    C   30 0.976
    40  H   0.997    C   30 0.967
    41  H   0.998    C   32 0.968
    42  H   0.999    C   33 0.971
    43  H   0.997    C   34 0.971
    44  H   0.999    C   35 0.968
    45  H   0.998    C   36 0.967
    46  N   3.048    C   47 1.017    C   52 0.986    H  355 0.954
    47  C   3.988    N   46 1.017    C   50 0.961    H   53 0.959    C   48 0.949
    48  C   3.937    O   49 1.644    N   60 1.269    C   47 0.949
    49  O   1.948    C   48 1.644    N   60 0.190
    50  C   3.994    C   51 0.999    H   54 0.983    H   55 0.980    C   47 0.961
    51  C   3.996    C   52 1.015    C   50 0.999    H   56 0.977    H   57 0.976
    52  C   3.984    C   51 1.015    N   46 0.986    H   59 0.979    H   58 0.970
    53  H   0.997    C   47 0.959
    54  H   0.999    C   50 0.983
    55  H   0.996    C   50 0.980
    56  H   0.998    C   51 0.977
    57  H   0.998    C   51 0.976
    58  H   0.999    C   52 0.970
    59  H   0.998    C   52 0.979
    60  N   3.446    C   48 1.269    C   61 1.000    H   64 0.911    O   49 0.190
    61  C   3.974    N   60 1.000    C   62 0.962    H   66 0.958    H   65 0.953
    62  C   3.948    O   63 1.609    N   67 1.305    C   61 0.962
    63  O   1.919    C   62 1.609    N   67 0.189
    64  H   0.951    N   60 0.911
    65  H   0.994    C   61 0.953
    66  H   0.990    C   61 0.958
    67  N   3.477    C   62 1.305    C   68 0.985    H   75 0.917    O   63 0.189
    68  C   3.966    N   67 0.985    C   71 0.977    C   69 0.959    H   76 0.928
    69  C   3.950    O   70 1.592    N   81 1.283    C   68 0.959
    70  O   1.979    C   69 1.592    N   81 0.185    H  329 0.064
    71  C   3.989    C   68 0.977    C   72 0.972    H   78 0.960    H   77 0.953    O   73 0.052
    72  C   3.949    O   73 1.636    N   74 1.316    C   71 0.972
    73  O   1.944    C   72 1.636    N   74 0.196    C   71 0.052
    74  N   3.402    C   72 1.316    H   80 0.929    H   79 0.928    O   73 0.196
    75  H   0.953    N   67 0.917
    76  H   0.990    C   68 0.928
    77  H   0.988    C   71 0.953
    78  H   0.992    C   71 0.960
    79  H   0.943    N   74 0.928
    80  H   0.948    N   74 0.929
    81  N   3.488    C   69 1.283    C   82 0.973    C   87 0.947    O   70 0.185
    82  C   3.965    C   85 0.975    N   81 0.973    H   88 0.945    C   83 0.942
    83  C   3.947    O   84 1.593    N   95 1.325    C   82 0.942
    84  O   1.910    C   83 1.593    N   95 0.193
    85  C   3.985    C   86 1.005    C   82 0.975    H   89 0.972    H   90 0.971
    86  C   3.991    C   87 1.011    C   85 1.005    H   91 0.976    H   92 0.968
    87  C   3.956    C   86 1.011    H   94 0.965    H   93 0.964    N   81 0.947
    88  H   0.992    C   82 0.945
    89  H   0.995    C   85 0.972
    90  H   0.992    C   85 0.971
    91  H   0.998    C   86 0.976
    92  H   0.994    C   86 0.968
    93  H   0.997    C   87 0.964
    94  H   0.991    C   87 0.965
    95  N   3.491    C   83 1.325    C   96 0.976    H  103 0.902    O   84 0.193
    96  C   3.961    N   95 0.976    C   99 0.970    C   97 0.948    H  104 0.944
    97  C   3.956    O   98 1.577    N  107 1.336    C   96 0.948
    98  O   1.907    C   97 1.577    N  107 0.193
    99  C   3.981    C   96 0.970    H  105 0.961    H  106 0.952    C  100 0.951
   100  C   3.946    O  101 1.502    O  102 1.462    C   99 0.951
   101  O   1.833    C  100 1.502    O  102 0.222
   102  O   1.767    C  100 1.462    O  101 0.222
   103  H   0.956    N   95 0.902
   104  H   0.994    C   96 0.944
   105  H   0.999    C   99 0.961
   106  H   0.996    C   99 0.952
   107  N   3.489    C   97 1.336    C  108 0.993    H  111 0.891    O   98 0.193
   108  C   3.966    C  109 1.026    N  107 0.993    H  113 0.929    H  112 0.913    O  110 0.066
   109  C   3.912    O  110 1.853    C  108 1.026    H  356 0.949
   110  O   2.048    C  109 1.853    C  108 0.066
   111  H   0.945    N  107 0.891
   112  H   0.983    C  108 0.913
   113  H   0.986    C  108 0.929
   114  C   2.992    O  115 1.055    H  118 0.896    H  116 0.482    H  117 0.469    H  119 0.051
   115  O   1.950    C  114 1.055    H  119 0.807
   116  H   0.948    C  114 0.482    H  117 0.456
   117  H   0.964    C  114 0.469    H  116 0.456
   118  H   0.987    C  114 0.896
   119  H   0.871    O  115 0.807    C  114 0.051
   120  O   1.794    H  121 0.897    H  122 0.884
   121  H   0.909    O  120 0.897
   122  H   0.885    O  120 0.884
   123  C   3.955    O  124 1.006    H  125 0.984    H  126 0.982    H  127 0.976
   124  O   1.923    C  123 1.006    H  128 0.881
   125  H   0.997    C  123 0.984
   126  H   0.999    C  123 0.982
   127  H   0.999    C  123 0.976
   128  H   0.892    O  124 0.881
   129  C   3.954    O  130 1.003    H  131 0.983    H  132 0.982    H  133 0.975
   130  O   1.945    C  129 1.003    H  134 0.883
   131  H   0.997    C  129 0.983
   132  H   0.999    C  129 0.982
   133  H   0.998    C  129 0.975
   134  H   0.910    O  130 0.883
   135  O   1.868    H  137 0.886    H  136 0.879
   136  H   0.893    O  135 0.879
   137  H   0.908    O  135 0.886
   138  O   1.796    H  139 0.891    H  140 0.890
   139  H   0.896    O  138 0.891
   140  H   0.904    O  138 0.890
   141  O   1.805    H  142 0.894    H  143 0.878
   142  H   0.905    O  141 0.894
   143  H   0.883    O  141 0.878
   144  O   1.846    H  146 0.896    H  145 0.888
   145  H   0.891    O  144 0.888
   146  H   0.899    O  144 0.896
   147  O   1.804    H  149 0.902    H  148 0.897
   148  H   0.898    O  147 0.897
   149  H   0.908    O  147 0.902
   150  O   1.787    H  152 0.883    H  151 0.873
   151  H   0.910    O  150 0.873
   152  H   0.886    O  150 0.883
   153  N   2.982    C  154 1.011    H  358 0.955    H  164 0.954
   154  C   3.985    N  153 1.011    C  155 0.991    H  165 0.956    C  157 0.933    O  156 0.060
   155  C   3.896    O  156 1.888    C  154 0.991    H  359 0.951
   156  O   2.035    C  155 1.888    C  154 0.060
   157  C   3.989    C  158 1.001    H  166 0.975    H  167 0.967    C  154 0.933
   158  C   3.988    C  159 1.438    C  160 1.405    C  157 1.001    C  163 0.097
   159  C   3.994    C  158 1.438    C  161 1.424    H  168 0.967    C  162 0.111
   160  C   3.988    C  162 1.430    C  158 1.405    H  169 0.971    C  161 0.123
   161  C   3.992    C  163 1.439    C  159 1.424    H  170 0.960    C  160 0.123
   162  C   3.989    C  163 1.448    C  160 1.430    H  171 0.970    C  159 0.111
   163  C   3.990    C  162 1.448    C  161 1.439    H  172 0.962    C  158 0.097
   164  H   0.968    N  153 0.954
   165  H   0.997    C  154 0.956
   166  H   0.997    C  157 0.975
   167  H   0.997    C  157 0.967
   168  H   0.999    C  159 0.967
   169  H   0.997    C  160 0.971
   170  H   0.999    C  161 0.960
   171  H   0.997    C  162 0.970
   172  H   0.998    C  163 0.962
   173  N   2.992    C  174 1.017    H  360 0.954    H  182 0.953
   174  C   3.985    N  173 1.017    C  175 0.973    H  183 0.963    C  177 0.952    O  176 0.060
   175  C   3.889    O  176 1.903    C  174 0.973    H  361 0.951
   176  O   2.043    C  175 1.903    C  174 0.060
   177  C   3.992    C  178 1.008    H  185 0.973    H  184 0.969    C  174 0.952
   178  C   3.995    C  177 1.008    H  187 0.972    H  186 0.954    C  179 0.953    O  180 0.060
   179  C   3.939    O  180 1.638    N  181 1.321    C  178 0.953
   180  O   1.938    C  179 1.638    N  181 0.196    C  178 0.060
   181  N   3.408    C  179 1.321    H  189 0.931    H  188 0.912    O  180 0.196
   182  H   0.968    N  173 0.953
   183  H   0.997    C  174 0.963
   184  H   0.996    C  177 0.969
   185  H   0.996    C  177 0.973
   186  H   0.994    C  178 0.954
   187  H   0.997    C  178 0.972
   188  H   0.948    N  181 0.912
   189  H   0.954    N  181 0.931
   190  N   3.000    C  191 1.022    H  362 0.954    H  196 0.953
   191  C   3.988    N  190 1.022    C  194 0.995    H  197 0.959    C  192 0.910    O  193 0.052
   192  C   3.949    O  193 1.662    N  201 1.275    C  191 0.910
   193  O   1.990    C  192 1.662    N  201 0.203    C  191 0.052
   194  C   3.971    C  191 0.995    H  198 0.973    H  199 0.973    S  195 0.960
   195  S   1.938    C  194 0.960    H  200 0.912
   196  H   0.971    N  190 0.953
   197  H   0.998    C  191 0.959
   198  H   0.998    C  194 0.973
   199  H   0.999    C  194 0.973
   200  H   0.939    S  195 0.912
   201  N   3.493    C  192 1.275    C  202 0.968    C  207 0.965    O  193 0.203
   202  C   3.970    C  205 0.979    N  201 0.968    H  208 0.951    C  203 0.943    O  204 0.051
   203  C   3.949    O  204 1.628    N  215 1.306    C  202 0.943
   204  O   1.935    C  203 1.628    N  215 0.190    C  202 0.051
   205  C   3.987    C  206 0.999    C  202 0.979    H  209 0.975    H  210 0.974
   206  C   3.990    C  207 1.010    C  205 0.999    H  211 0.979    H  212 0.974
   207  C   3.965    C  206 1.010    H  213 0.972    H  214 0.968    N  201 0.965
   208  H   0.992    C  202 0.951
   209  H   0.995    C  205 0.975
   210  H   0.995    C  205 0.974
   211  H   0.996    C  206 0.979
   212  H   0.993    C  206 0.974
   213  H   0.996    C  207 0.972
   214  H   0.995    C  207 0.968
   215  N   3.469    C  203 1.306    C  216 0.989    H  219 0.925    O  204 0.190
   216  C   3.960    N  215 0.989    H  220 0.953    C  217 0.950    H  221 0.947    O  218 0.059
   217  C   3.947    O  218 1.655    N  222 1.267    C  216 0.950
   218  O   1.998    C  217 1.655    N  222 0.195    C  216 0.059
   219  H   0.949    N  215 0.925
   220  H   0.988    C  216 0.953
   221  H   0.988    C  216 0.947
   222  N   3.443    C  217 1.267    C  223 0.988    H  230 0.894    O  218 0.195
   223  C   3.966    N  222 0.988    C  226 0.966    C  224 0.940    H  231 0.936    O  225 0.055
   224  C   3.949    O  225 1.667    N  241 1.266    C  223 0.940
   225  O   1.989    C  224 1.667    N  241 0.194    C  223 0.055
   226  C   3.986    C  227 0.998    H  232 0.966    C  223 0.966    H  233 0.962
   227  C   3.996    C  228 1.012    C  229 1.004    C  226 0.998    H  234 0.967
   228  C   3.994    C  227 1.012    H  237 0.985    H  235 0.984    H  236 0.981
   229  C   3.993    C  227 1.004    H  238 0.987    H  239 0.986    H  240 0.981
   230  H   0.950    N  222 0.894
   231  H   0.993    C  223 0.936
   232  H   0.998    C  226 0.966
   233  H   0.995    C  226 0.962
   234  H   0.999    C  227 0.967
   235  H   0.997    C  228 0.984
   236  H   0.999    C  228 0.981
   237  H   0.997    C  228 0.985
   238  H   0.998    C  229 0.987
   239  H   0.998    C  229 0.986
   240  H   0.999    C  229 0.981
   241  N   3.422    C  224 1.266    C  242 0.986    H  245 0.885    O  225 0.194
   242  C   3.965    N  241 0.986    C  243 0.963    H  246 0.950    H  247 0.948    O  244 0.052
   243  C   3.953    O  244 1.612    N  248 1.300    C  242 0.963
   244  O   1.955    C  243 1.612    N  248 0.190    C  242 0.052
   245  H   0.948    N  241 0.885
   246  H   0.989    C  242 0.950
   247  H   0.991    C  242 0.948
   248  N   3.477    C  243 1.300    C  249 0.988    H  256 0.896    O  244 0.190
   249  C   3.961    N  248 0.988    C  250 0.975    C  252 0.948    H  257 0.942    O  251 0.058
   250  C   3.898    O  251 1.888    C  249 0.975    H  363 0.955
   251  O   2.042    C  250 1.888    C  249 0.058
   252  C   3.981    C  253 0.987    H  259 0.972    H  258 0.971    C  249 0.948
   253  C   3.995    C  255 1.009    C  254 1.007    C  252 0.987    H  260 0.967
   254  C   3.989    C  253 1.007    H  262 0.985    H  263 0.983    H  261 0.982
   255  C   3.994    C  253 1.009    H  266 0.986    H  264 0.983    H  265 0.982
   256  H   0.950    N  248 0.896
   257  H   0.990    C  249 0.942
   258  H   0.994    C  252 0.971
   259  H   0.995    C  252 0.972
   260  H   0.999    C  253 0.967
   261  H   0.996    C  254 0.982
   262  H   0.998    C  254 0.985
   263  H   0.998    C  254 0.983
   264  H   0.998    C  255 0.983
   265  H   0.999    C  255 0.982
   266  H   0.997    C  255 0.986
   267  N   2.996    C  268 1.017    H  279 0.957    H  357 0.951
   268  C   3.985    N  267 1.017    H  280 0.964    C  269 0.953    C  271 0.945
   269  C   3.942    O  270 1.607    N  288 1.313    C  268 0.953
   270  O   1.917    C  269 1.607    N  288 0.193
   271  C   3.995    C  272 1.021    H  282 0.973    H  281 0.966    C  268 0.945
   272  C   3.989    C  274 1.409    C  273 1.394    C  271 1.021    C  277 0.094
   273  C   3.993    C  275 1.461    C  272 1.394    H  283 0.972    C  276 0.105
   274  C   3.991    C  276 1.452    C  272 1.409    H  284 0.968    C  275 0.105
   275  C   3.991    C  273 1.461    C  277 1.362    H  285 0.970    C  274 0.105
   276  C   3.987    C  274 1.452    C  277 1.368    H  286 0.965    C  273 0.105    O  278 0.062
   277  C   3.940    C  276 1.368    C  275 1.362    O  278 1.081    C  272 0.094
   278  O   2.102    C  277 1.081    H  287 0.860    C  276 0.062
   279  H   0.972    N  267 0.957
   280  H   0.997    C  268 0.964
   281  H   0.996    C  271 0.966
   282  H   0.998    C  271 0.973
   283  H   0.999    C  273 0.972
   284  H   0.998    C  274 0.968
   285  H   0.997    C  275 0.970
   286  H   0.998    C  276 0.965
   287  H   0.880    O  278 0.860
   288  N   3.475    C  269 1.313    C  289 0.980    H  300 0.905    O  270 0.193
   289  C   3.967    N  288 0.980    C  292 0.961    H  301 0.954    C  290 0.925    O  291 0.054
   290  C   3.951    O  291 1.658    N  309 1.294    C  289 0.925
   291  O   1.987    C  290 1.658    N  309 0.201    C  289 0.054
   292  C   3.985    C  293 1.009    H  302 0.968    H  303 0.962    C  289 0.961
   293  C   3.987    C  294 1.449    C  295 1.368    C  292 1.009    C  298 0.098
   294  C   3.990    C  293 1.449    C  296 1.408    H  304 0.964    C  297 0.107
   295  C   3.988    C  297 1.495    C  293 1.368    H  305 0.965    C  296 0.104
   296  C   3.988    C  298 1.419    C  294 1.408    H  306 0.968    C  295 0.104
   297  C   3.989    C  295 1.495    C  298 1.334    H  307 0.963    C  294 0.107    O  299 0.050
   298  C   3.926    C  296 1.419    C  297 1.334    O  299 1.034    C  293 0.098
   299  O   2.079    C  298 1.034    H  308 0.860    C  297 0.050
   300  H   0.947    N  288 0.905
   301  H   0.996    C  289 0.954
   302  H   0.994    C  292 0.968
   303  H   0.993    C  292 0.962
   304  H   0.997    C  294 0.964
   305  H   0.997    C  295 0.965
   306  H   0.997    C  296 0.968
   307  H   0.999    C  297 0.963
   308  H   0.905    O  299 0.860
   309  N   3.461    C  290 1.294    C  310 0.975    H  318 0.905    O  291 0.201
   310  C   3.962    N  309 0.975    C  313 0.970    C  311 0.948    H  319 0.936    O  312 0.050
   311  C   3.914    O  312 1.667    O  317 1.243    C  310 0.948
   312  O   1.945    C  311 1.667    O  317 0.183    C  310 0.050
   313  C   3.981    C  314 0.977    H  320 0.971    H  321 0.970    C  310 0.970
   314  C   3.992    C  315 1.017    C  316 1.011    C  313 0.977    H  322 0.966
   315  C   3.994    C  314 1.017    H  324 0.984    H  323 0.984    H  325 0.982
   316  C   3.995    C  314 1.011    H  327 0.985    H  328 0.982    H  326 0.976
   317  O   2.251    C  311 1.243    H  329 0.762    O  312 0.183
   318  H   0.952    N  309 0.905
   319  H   0.992    C  310 0.936
   320  H   0.997    C  313 0.971
   321  H   0.996    C  313 0.970
   322  H   0.999    C  314 0.966
   323  H   0.998    C  315 0.984
   324  H   0.998    C  315 0.984
   325  H   0.996    C  315 0.982
   326  H   0.998    C  316 0.976
   327  H   0.998    C  316 0.985
   328  H   0.997    C  316 0.982
   329  H   0.857    O  317 0.762    O   70 0.064
   330  N   2.979    C  331 1.013    H  339 0.952    H  364 0.948
   331  C   3.985    N  330 1.013    C  334 0.968    C  332 0.957    H  340 0.944
   332  C   3.906    O  333 1.646    O  338 1.245    C  331 0.957
   333  O   1.941    C  332 1.646    O  338 0.176
   334  C   3.988    C  335 0.978    H  342 0.972    H  341 0.972    C  331 0.968
   335  C   3.995    C  336 1.018    C  337 1.011    C  334 0.978    H  343 0.966
   336  C   3.994    C  335 1.018    H  344 0.984    H  345 0.984    H  346 0.982
   337  C   3.995    C  335 1.011    H  348 0.985    H  349 0.983    H  347 0.980
   338  O   2.259    C  332 1.245    H  350 0.806    O  333 0.176
   339  H   0.969    N  330 0.952
   340  H   0.995    C  331 0.944
   341  H   0.998    C  334 0.972
   342  H   0.999    C  334 0.972
   343  H   0.999    C  335 0.966
   344  H   0.998    C  336 0.984
   345  H   0.998    C  336 0.984
   346  H   0.996    C  336 0.982
   347  H   0.998    C  337 0.980
   348  H   0.998    C  337 0.985
   349  H   0.997    C  337 0.983
   350  H   0.837    O  338 0.806
   351  H   0.961    N    1 0.947
   352  H   0.994    C   14 0.957
   353  H   0.968    N   26 0.954
   354  H   0.996    C   28 0.953
   355  H   0.967    N   46 0.954
   356  H   0.989    C  109 0.949
   357  H   0.964    N  267 0.951
   358  H   0.967    N  153 0.955
   359  H   0.994    C  155 0.951
   360  H   0.965    N  173 0.954
   361  H   0.994    C  175 0.951
   362  H   0.965    N  190 0.954
   363  H   0.994    C  250 0.955
   364  H   0.966    N  330 0.948
 
molecular dipole:
                 x           y           z       tot (Debye)
 q only:      -24.374     -18.321     -43.496
   full:      -23.471     -16.831     -44.380     134.589
molecular quadrupole (traceless):
                xx          xy          yy          xz          yz          zz
 q only:      462.042    -754.386     990.967   -1591.177   -1191.661   -1453.008
  q+dip:      503.027    -672.391    1092.737   -1551.464   -1086.562   -1595.764
   full:      509.195    -675.263    1086.364   -1554.510   -1085.069   -1595.560
speedup  6.71
cpu  time for grad   44.99 s
wall time for grad    6.71 s

SCC energy    :    -576.5202036
rep           :       7.6968956
ES            :       1.7782006
AES           :      -0.0173975
AXC           :       0.1520243
disp          :      -0.4667981
XB            :       0.0000000
fix           :       0.0000000
Gborn         :       0.0000000
Gsasa         :       0.0000000
Ghb           :       0.0000000
Gshift        :       0.0000000
Gsolv         :      -0.3386063     -212.48
Etot ala COSMO:    -576.5202036
grad norm     :       0.9680219
total E       :    -568.7843719
atomizationE  :      99.8650362    62666.26
(atE without considering molecular charge,
 total energy contains solvation terms)
H-L gap (eV)  :          0.3291

------------------------------------------------------------------------
 * finished run on 2019/02/22 at 14:20:13.311     
------------------------------------------------------------------------
 total:
 * wall-time:     0 d,  0 h,  0 min,  7.221 sec
 *  cpu-time:     0 d,  0 h,  0 min, 47.545 sec
 * ratio c/w:     6.584 speedup
 SCF:
 * wall-time:     0 d,  0 h,  0 min,  6.982 sec
 *  cpu-time:     0 d,  0 h,  0 min, 46.434 sec
 * ratio c/w:     6.650 speedup

