      -----------------------------------------------------------      
     |                   =====================                   |     
     |                           x T B                           |     
     |                   =====================                   |     
     |                         S. Grimme                         |     
     |          Mulliken Center for Theoretical Chemistry        |     
     |                    University of Bonn                     |     
     |                 Version 6.0.1 (SAW181210)                 |     
      -----------------------------------------------------------      

   This program is distributed in the hope that it will be useful,
   but WITHOUT ANY WARRANTY; without even the implied warranty of
   MERCHANTABILITY or FITNESS FOR A PARTICULAR PURPOSE.
   
   FOR NON-COMMERCIAL, ACADEMIA USE ONLY.
   
   Cite this work as:
   S. Grimme, C. Bannwarth, P. Shushkov, J. Comput. Theory Chem., 2017,
   13, 1989-2009.
   C. Bannwarth, S. Ehlert and S. Grimme., ChemRxiv, 2018, preprint.
   http://doi.org/10.26434/chemrxiv.7246238.v1
   
   for sTDA-xTB:
   S. Grimme and C. Bannwarth, J. Chem. Phys., 2016, 145, 054103.
   
   in the mass-spec context:
   V. Asgeirsson, C. Bauer and S. Grimme, Chem. Sci., 2017, 8, 4879.
   
   if GBSA is used:
   P. Shushkov, F. März and S. Grimme, unpublished.
   
   for ANC optimizer:
   S. Grimme, unpublished.
   Rational Function algorithm used in ANCopt:
   F. Eckert, P. Pulay, H.-J. Werner, J. Comput. Chem., 1997, 18, 1473.
   
   with help from (in alphabetical order)
   C. Bannwarth, F. Bohle, G. Brandenburg, E. Caldeweyher, M. Checinski,
   S. Dohm, S. Ehlert, S. Ehrlich, F. März, H. Neugebauer, J. Pisarek,
   P. Pracht, P. Shushkov, and S. Spicher.
   
 * started run on 2019/02/22 at 14:30:22.279     
========================================================================
 # omp threads = 12
========================================================================
number of atoms            : 1183
number of electrons        : 3284
charge                     : -4
spin                       : .0
first test random number   : .4119

########################################################################
# WARNING! Please study the warnings concerning your input carefully
#  - Process number higher than OMP_NUM_THREADS, I hope you know what you are doing.
########################################################################

           ------------------------------------------------- 
          |                 G F N 2 - x T B                 |
          | Geometry, Frequencies, Noncovalent interactions |
          |            JCTC 2018 parametrisation            |
           ------------------------------------------------- 
 
      method parameters     
 k(s)        :  1.8500
 k(p)        :  2.2300
 k(d)        :  2.2300
 k(f)        :  2.0000
 kEN (H0ij)  : -2.0000
 D4 a1       :  0.5200
 D4 a2       :  5.0000
 D4 s6       :  1.0000
 D4 s8       :  2.7000
 D4 s9       :  5.0000
 alphaj      :  2.0000

 Solvent             : h2o
 Using internal parameter file: .param_gbsa2_h2o
 Gsolv ref. state (COSMO-RS): gsolv [1 M gas/solution]
 temperature (mdtemp)       :    298.150000000000     
 dielectric constant        :    80.2000000000000     
 rho                        :    1.00000000000000     
 mass                       :    18.0000000000000     
 surface tension            :    15.5689454083859     
 probe radius               :   0.975313790000000     
 vdW radii scaling          :    1.00000000000000     
 Gshift (Eh)                :   1.857443126794793E-003
 c1                         :    1.55243817000000     
 soset                      :   0.130326360000000     
 HB correction              :  T

            Z     q(EN)     CN     RAES       Cart. coordinates
     1  N   5.0   -0.12    4.13    3.25    11.47178     3.52091    37.48414
     2  C   4.0   -0.01    4.27    4.14    11.00484     3.72758    34.83495
     3  C   4.0    0.15    3.38    3.07    13.04804     5.29802    33.57672
     4  O   6.0   -0.32    1.28    1.80    15.07666     5.61269    34.64450
     5  H   1.0    0.07    1.06    1.44    12.81598     4.68333    38.09991
     6  H   1.0    0.05    1.06    1.44     9.92091     3.88160    38.43689
     7  H   1.0    0.06    1.04    1.43    11.93448     1.70653    37.92160
     8  H   1.0    0.06    1.05    1.44    10.77214     1.91725    34.09061
     9  H   1.0    0.04    1.05    1.44     9.25925     4.68402    34.57554
    10  N   5.0   -0.15    3.50    2.08    12.41196     6.21875    31.37384
    11  C   4.0    0.05    4.51    4.55    14.13148     7.96147    30.11089
    12  C   4.0    0.15    3.50    3.11    12.63125    10.30458    29.23533
    13  O   6.0   -0.30    1.25    1.80    10.35580    10.20079    28.80822
    14  C   4.0   -0.03    4.17    3.94    15.67027     6.73584    27.99978
    15  S   6.0   -0.03    2.47    3.10    13.91923     5.59004    25.27945
    16  H   1.0    0.11    1.13    1.45    10.76541     6.07592    30.67598
    17  H   1.0    0.07    1.08    1.44    15.40551     8.65851    31.57834
    18  H   1.0    0.06    1.09    1.44    17.02959     8.06818    27.26922
    19  H   1.0    0.05    1.10    1.44    16.48448     5.00948    28.69691
    20  N   5.0   -0.15    3.49    2.07    14.00502    12.41901    29.12619
    21  C   4.0    0.04    4.34    4.28    12.93197    14.86989    28.62833
    22  C   4.0    0.16    3.39    3.08    13.30757    15.67015    25.82441
    23  O   6.0   -0.32    1.29    1.80    15.15415    15.05745    24.60318
    24  C   4.0   -0.06    4.18    3.96    14.17271    16.83210    30.30683
    25  H   1.0    0.11    1.14    1.45    15.72980    12.23379    29.41958
    26  H   1.0    0.06    1.06    1.44    10.89630    14.71979    29.00437
    27  H   1.0    0.06    1.05    1.44    16.09451    16.73803    29.99429
    28  H   1.0    0.06    1.01    1.43    13.65252    16.58013    32.24963
    29  H   1.0    0.06    1.03    1.43    13.66652    18.65394    29.87204
    30  N   5.0   -0.14    3.50    2.08    11.52474    17.22339    24.95805
    31  C   4.0    0.03    4.44    4.44    11.53085    18.21747    22.38662
    32  C   4.0    0.15    3.41    3.08    12.49571    20.97681    22.39223
    33  O   6.0   -0.30    1.31    1.80    13.16590    22.06378    24.28319
    34  C   4.0   -0.03    4.36    4.32     8.92487    17.89218    21.22285
    35  C   4.0   -0.01    3.56    3.14     8.26123    15.19862    20.91556
    36  C   4.0   -0.04    3.44    3.09     9.36207    13.83247    18.96396
    37  C   4.0   -0.03    3.43    3.09     6.75655    13.89607    22.70847
    38  C   4.0   -0.04    3.32    3.06     8.82257    11.29559    18.60317
    39  C   4.0   -0.03    3.33    3.06     6.27162    11.30930    22.43640
    40  C   4.0   -0.04    3.35    3.06     7.19521    10.04478    20.30612
    41  H   1.0    0.10    1.10    1.44    10.18486    17.69909    26.05636
    42  H   1.0    0.05    1.08    1.44    12.90843    17.19258    21.31407
    43  H   1.0    0.06    1.06    1.44     7.67523    18.91015    22.39973
    44  H   1.0    0.05    1.04    1.43     8.87752    18.76477    19.36940
    45  H   1.0    0.05    1.00    1.43    10.53842    14.89141    17.55712
    46  H   1.0    0.06    1.03    1.43     6.02352    14.97218    24.26904
    47  H   1.0    0.04    1.00    1.43     9.75523    10.30532    16.99753
    48  H   1.0    0.05    1.03    1.43     5.02511    10.36989    23.74644
    49  H   1.0    0.05    1.02    1.43     6.75751     8.06224    20.08004
    50  N   5.0   -0.15    3.48    2.07    12.69240    22.12384    20.09970
    51  C   4.0    0.03    4.46    4.47    13.73490    24.66701    19.91909
    52  C   4.0    0.16    3.49    3.11    12.20729    26.49150    21.53450
    53  O   6.0   -0.32    1.26    1.80     9.89797    26.54634    21.47854
    54  C   4.0   -0.04    4.35    4.29    13.59630    25.48380    17.17369
    55  C   4.0   -0.03    4.23    4.06    14.88038    27.94682    16.68634
    56  C   4.0    0.24    3.14    3.03    14.80771    28.65384    13.90836
    57  O   6.0   -0.29    1.21    1.80    15.82252    30.66085    13.35486
    58  O   6.0   -0.29    1.23    1.80    13.98897    27.15438    12.30186
    59  H   1.0    0.09    1.12    1.45    12.20445    21.05476    18.72641
    60  H   1.0    0.05    1.08    1.44    15.66642    24.57682    20.47273
    61  H   1.0    0.04    1.01    1.43    14.48549    23.95257    16.00826
    62  H   1.0    0.05    1.06    1.44    11.62492    25.56138    16.77350
    63  H   1.0    0.05    1.04    1.43    13.90789    29.44135    17.71706
    64  H   1.0    0.05    1.02    1.43    16.86542    27.99455    17.29180
    65  N   5.0   -0.16    3.42    2.03    13.63199    28.15377    22.90368
    66  C   4.0    0.01    4.30    4.19    12.46375    30.02813    24.44719
    67  C   4.0    0.15    3.32    3.06    11.62093    29.13148    27.06161
    68  O   6.0   -0.32    1.21    1.80    10.76764    30.65025    28.61493
    69  H   1.0    0.11    1.12    1.45    15.45042    28.06417    22.90703
    70  H   1.0    0.04    1.05    1.44    13.75717    31.54076    24.69470
    71  H   1.0    0.05    1.06    1.44    10.80084    30.64893    23.49821
    72  N   5.0   -0.13    3.51    2.08    11.77937    26.65581    27.46476
    73  C   4.0    0.04    4.42    4.41    10.99514    25.47701    29.81989
    74  C   4.0    0.16    3.43    3.09    13.28476    25.18679    31.58229
    75  O   6.0   -0.30    1.27    1.80    15.40948    24.73845    30.79910
    76  C   4.0   -0.03    4.34    4.27     9.78858    22.89520    29.15044
    77  C   4.0   -0.02    4.25    4.09     9.06312    21.36012    31.46865
    78  C   4.0    0.24    3.15    3.03     7.59937    19.02137    30.73947
    79  O   6.0   -0.31    1.21    1.80     6.87809    18.60801    28.59038
    80  O   6.0   -0.28    1.19    1.80     7.07838    17.43486    32.53997
    81  H   1.0    0.11    1.13    1.45    12.49227    25.60919    26.16540
    82  H   1.0    0.06    1.07    1.44     9.51626    26.57400    30.67038
    83  H   1.0    0.07    1.06    1.44     8.08685    23.22380    28.19007
    84  H   1.0    0.07    1.07    1.44    11.06242    21.93380    28.01914
    85  H   1.0    0.06    1.06    1.44    10.67658    20.70883    32.42536
    86  H   1.0    0.08    1.05    1.44     7.90801    22.48455    32.68070
    87  N   5.0   -0.15    3.47    2.06    12.71748    25.32005    34.03043
    88  C   4.0    0.05    4.39    4.36    14.57063    24.84387    35.99423
    89  C   4.0    0.16    3.47    3.10    15.69360    22.23816    35.76521
    90  O   6.0   -0.31    1.27    1.80    14.29067    20.33965    35.44331
    91  C   4.0    0.04    4.14    3.88    13.31883    25.09013    38.71994
    92  O   6.0   -0.25    2.06    1.83    14.86334    24.31051    40.69133
    93  H   1.0    0.11    1.14    1.45    10.99941    25.62966    34.47053
    94  H   1.0    0.05    1.08    1.44    15.98187    26.24781    35.99022
    95  H   1.0    0.04    0.99    1.43    12.69937    27.10220    38.89237
    96  H   1.0    0.07    1.05    1.44    11.75075    23.91123    38.75690
    97  H   1.0    0.12    1.05    1.44    14.04793    24.55617    42.21993
    98  N   5.0   -0.13    3.56    2.12    18.12172    22.06049    36.10533
    99  C   4.0    0.05    4.42    4.41    19.54298    19.73073    36.16322
   100  C   4.0    0.08    3.24    3.04    20.97822    19.50980    38.64963
   101  O   6.0   -0.29    1.13    1.80    21.65335    21.41458    39.84641
   102  C   4.0   -0.03    4.18    3.96    21.17090    19.34377    33.89210
   103  S   6.0   -0.00    2.56    3.10    23.12474    22.14798    33.21915
   104  H   1.0    0.10    1.12    1.45    19.12624    23.55098    36.36118
   105  H   1.0    0.07    1.09    1.44    18.14459    18.23441    36.29718
   106  H   1.0    0.05    1.08    1.44    22.44440    17.77039    34.08994
   107  H   1.0    0.05    1.11    1.45    20.18614    18.94440    32.15446
   108  N   5.0   -0.23    3.33    1.99    18.92794     9.48734    40.17702
   109  C   4.0    0.14    3.52    3.12    19.45160    11.46487    36.12734
   110  O   6.0   -0.31    1.27    1.80    19.44834    13.75138    35.67523
   111  H   1.0    0.08    1.07    1.44    20.37508    10.59758    40.50372
   112  H   1.0    0.06    1.10    1.44    16.75264     8.78810    37.16206
   113  C   4.0    0.03    4.46    4.48    17.65412    10.31479    38.04275
   114  C   4.0   -0.03    4.44    4.45    15.77624    12.33059    39.12571
   115  C   4.0   -0.01    3.64    3.19    13.31186    11.66960    37.84827
   116  C   4.0   -0.03    3.41    3.08    12.81202    12.87905    35.54204
   117  C   4.0   -0.05    3.33    3.06    11.70840     9.98456    39.17827
   118  C   4.0   -0.02    3.34    3.06    10.47819    12.56802    34.35771
   119  C   4.0   -0.04    3.48    3.11     9.38882     9.72840    37.93420
   120  C   4.0    0.07    3.41    3.08     8.64288    10.84153    35.60272
   121  O   6.0   -0.23    2.64    2.11     6.45105    10.33516    34.86754
   122  H   1.0    0.04    1.06    1.44    15.54845    12.12564    41.10017
   123  H   1.0    0.06    1.07    1.44    16.24384    14.14509    38.44941
   124  H   1.0    0.07    1.04    1.43    14.18136    14.16615    34.78620
   125  H   1.0    0.04    1.02    1.43    12.00443     9.01897    40.94599
   126  H   1.0    0.07    1.02    1.43    10.00656    13.48034    32.58965
   127  H   1.0    0.05    1.06    1.44     7.87435     8.52249    38.47826
   128  H   1.0    0.13    1.14    1.45     5.02624     9.07290    35.43199
   129  N   5.0   -0.09    3.69    2.25    21.06515     9.87040    35.00069
   130  C   4.0    0.03    4.55    4.61    22.79108    10.91923    33.02867
   131  C   4.0    0.16    3.48    3.11    21.24849    11.67963    30.75367
   132  O   6.0   -0.31    1.32    1.80    19.06136    10.95377    30.43611
   133  C   4.0   -0.05    4.33    4.25    24.49189     8.59432    32.40727
   134  C   4.0   -0.04    4.27    4.15    22.74582     6.34340    32.95101
   135  C   4.0   -0.02    4.36    4.31    21.29699     7.13078    35.30436
   136  H   1.0    0.05    1.05    1.44    23.74250    12.54930    33.79312
   137  H   1.0    0.05    1.04    1.43    25.05509     8.63380    30.47760
   138  H   1.0    0.04    1.03    1.43    26.09152     8.52924    33.63933
   139  H   1.0    0.05    1.01    1.43    21.38239     6.10791    31.35153
   140  H   1.0    0.04    1.05    1.44    23.76633     4.69540    33.24737
   141  H   1.0    0.06    1.06    1.44    19.57315     6.25128    35.36439
   142  H   1.0    0.04    1.03    1.43    22.28355     6.79165    37.04760
   143  N   5.0   -0.15    3.52    2.09    22.37910    13.24374    29.11808
   144  C   4.0    0.04    4.55    4.60    21.13712    13.81234    26.74452
   145  C   4.0    0.16    3.46    3.10    20.86887    11.38217    25.11368
   146  O   6.0   -0.30    1.27    1.80    22.57339     9.84682    25.00123
   147  C   4.0   -0.04    4.21    4.02    22.54635    15.80534    25.22557
   148  S   6.0   -0.03    2.47    3.10    23.00129    18.74223    26.99113
   149  H   1.0    0.10    1.13    1.45    24.05124    13.83328    29.44156
   150  H   1.0    0.06    1.10    1.44    19.33955    14.56930    27.17573
   151  H   1.0    0.05    1.11    1.45    24.35989    15.15586    24.85188
   152  H   1.0    0.05    1.07    1.44    21.46460    16.02237    23.51409
   153  N   5.0   -0.14    3.53    2.10    18.72040    11.19033    23.84444
   154  C   4.0    0.04    4.57    4.62    18.32919     9.04903    22.20123
   155  C   4.0    0.15    3.49    3.11    20.25797     9.12062    20.00120
   156  O   6.0   -0.29    1.24    1.80    20.73790    11.10306    18.93997
   157  C   4.0   -0.04    4.24    4.08    15.73502     9.07108    21.09831
   158  S   6.0    0.00    2.49    3.10    13.14430     8.81961    23.35633
   159  H   1.0    0.11    1.13    1.45    17.44678    12.47534    24.00840
   160  H   1.0    0.04    1.09    1.44    18.62706     7.32850    23.29934
   161  H   1.0    0.05    1.10    1.44    15.36236    10.84399    20.17607
   162  H   1.0    0.05    1.09    1.44    15.76438     7.61960    19.70009
   163  N   5.0   -0.09    3.64    2.20    21.23916     6.84215    19.28924
   164  C   4.0    0.04    4.55    4.61    23.24280     6.69617    17.35922
   165  C   4.0    0.15    3.40    3.08    22.24083     6.83679    14.65916
   166  O   6.0   -0.29    1.24    1.80    20.01016     6.37808    14.09978
   167  C   4.0   -0.05    4.37    4.32    24.50145     4.17624    17.97561
   168  C   4.0   -0.05    4.27    4.15    22.34478     2.52998    19.05963
   169  C   4.0   -0.02    4.41    4.39    20.87887     4.41086    20.59748
   170  H   1.0    0.07    1.07    1.44    24.51099     8.23939    17.73578
   171  H   1.0    0.03    1.03    1.43    25.39284     3.32700    16.38032
   172  H   1.0    0.04    1.03    1.43    26.00718     4.44411    19.31919
   173  H   1.0    0.04    1.03    1.43    21.13198     1.79734    17.59269
   174  H   1.0    0.03    1.03    1.43    23.01584     1.01098    20.19354
   175  H   1.0    0.04    1.05    1.44    18.94129     4.03827    20.61922
   176  H   1.0    0.04    1.05    1.44    21.70176     4.46815    22.41264
   177  N   5.0   -0.16    3.41    2.03    23.94393     7.38486    12.95543
   178  C   4.0    0.01    4.29    4.18    23.36009     7.39166    10.24886
   179  C   4.0    0.15    3.30    3.05    22.26550     9.85662     9.20711
   180  O   6.0   -0.32    1.24    1.80    21.51386     9.97545     7.05908
   181  H   1.0    0.08    1.10    1.44    25.67510     7.47140    13.34456
   182  H   1.0    0.04    1.04    1.43    25.01281     6.95165     9.20211
   183  H   1.0    0.06    1.06    1.44    21.97776     5.99849     9.89680
   184  N   5.0   -0.15    3.52    2.09    22.16532    11.79211    10.89158
   185  C   4.0    0.04    4.40    4.38    20.79407    14.10182    10.37190
   186  C   4.0    0.14    3.38    3.07    22.41636    16.49469    10.47349
   187  O   6.0   -0.29    1.25    1.80    21.45121    18.57838    10.29108
   188  C   4.0   -0.04    4.41    4.40    18.57612    14.32752    12.25515
   189  C   4.0   -0.02    4.22    4.03    16.57872    12.28265    12.13575
   190  C   4.0   -0.07    4.16    3.92    14.73840    12.62835    14.25469
   191  C   4.0   -0.07    4.14    3.87    15.24934    12.36692     9.55287
   192  H   1.0    0.10    1.13    1.45    22.81574    11.61964    12.56767
   193  H   1.0    0.06    1.07    1.44    20.02132    14.05993     8.48021
   194  H   1.0    0.04    1.05    1.44    19.19074    14.43594    14.15655
   195  H   1.0    0.06    1.05    1.44    17.69246    16.12859    11.96821
   196  H   1.0    0.06    1.06    1.44    17.41631    10.39852    12.33872
   197  H   1.0    0.04    1.02    1.43    13.94995    14.48214    14.02649
   198  H   1.0    0.05    1.01    1.43    15.69524    12.57328    16.03679
   199  H   1.0    0.04    1.01    1.43    13.38879    11.14560    14.35444
   200  H   1.0    0.05    1.00    1.43    14.44667    14.18841     9.17398
   201  H   1.0    0.04    1.01    1.43    13.89780    10.87931     9.43272
   202  H   1.0    0.05    1.01    1.43    16.59396    11.83326     8.13789
   203  N   5.0   -0.15    3.39    2.01    24.91409    16.16374    10.73558
   204  C   4.0    0.01    4.26    4.12    26.62013    18.39066    10.89105
   205  C   4.0    0.15    3.35    3.06    26.64470    19.65896    13.45643
   206  O   6.0   -0.30    1.24    1.80    27.58741    21.77846    13.66479
   207  H   1.0    0.10    1.10    1.44    25.74719    14.50275    10.78068
   208  H   1.0    0.04    1.05    1.44    28.49750    17.86455    10.47465
   209  H   1.0    0.05    1.05    1.44    26.14548    19.89362     9.64272
   210  N   5.0   -0.14    3.50    2.08    25.63316    18.45674    15.45394
   211  C   4.0    0.04    4.46    4.48    25.29777    19.77131    17.78802
   212  C   4.0    0.15    3.42    3.08    27.53160    19.47467    19.58983
   213  O   6.0   -0.31    1.25    1.80    28.58721    17.44369    19.98314
   214  C   4.0   -0.05    4.37    4.33    22.90656    18.71440    19.13087
   215  C   4.0   -0.02    4.20    4.01    20.44600    19.12607    17.62744
   216  C   4.0   -0.07    4.13    3.86    18.27865    17.80301    18.96695
   217  C   4.0   -0.07    4.13    3.87    19.92252    21.90361    17.09118
   218  H   1.0    0.09    1.13    1.45    25.11668    16.75645    15.46444
   219  H   1.0    0.07    1.10    1.44    25.25081    21.76637    17.42153
   220  H   1.0    0.06    1.04    1.43    23.14826    16.77777    19.55485
   221  H   1.0    0.04    1.04    1.43    22.63539    19.68691    20.89677
   222  H   1.0    0.05    1.09    1.44    20.69502    18.31090    15.81723
   223  H   1.0    0.04    1.02    1.43    16.56163    18.01539    17.98820
   224  H   1.0    0.05    1.01    1.43    17.94081    18.48322    20.84480
   225  H   1.0    0.06    1.01    1.43    18.56078    15.80691    19.14353
   226  H   1.0    0.04    1.02    1.43    18.20434    22.13219    16.08949
   227  H   1.0    0.05    1.02    1.43    21.37768    22.66899    15.94874
   228  H   1.0    0.05    1.01    1.43    19.75390    22.95255    18.79552
   229  N   5.0   -0.15    3.53    2.10    28.24265    21.61318    20.71936
   230  C   4.0    0.04    4.46    4.48    30.14227    21.73016    22.70412
   231  C   4.0    0.15    3.43    3.09    28.91246    22.83969    25.03459
   232  O   6.0   -0.30    1.28    1.80    27.25715    24.48264    24.90118
   233  C   4.0    0.05    4.25    4.09    32.39297    23.37044    21.70185
   234  O   6.0   -0.26    2.15    1.85    34.10530    23.41682    23.76250
   235  C   4.0   -0.07    4.13    3.86    31.68842    25.97082    20.81855
   236  H   1.0    0.11    1.12    1.45    27.43452    23.18721    20.24092
   237  H   1.0    0.05    1.08    1.44    30.63385    19.78743    23.02655
   238  H   1.0    0.04    1.05    1.44    33.25829    22.35120    20.16341
   239  H   1.0    0.13    1.05    1.44    35.40950    24.50710    23.35381
   240  H   1.0    0.06    1.02    1.43    30.81035    27.02179    22.29319
   241  H   1.0    0.06    1.02    1.43    30.43312    25.89890    19.28000
   242  H   1.0    0.04    1.04    1.43    33.31940    26.87666    20.26817
   243  N   5.0   -0.14    3.45    2.04    29.61970    21.85087    27.27113
   244  C   4.0    0.04    4.43    4.42    28.44462    22.64983    29.63180
   245  C   4.0    0.09    3.25    3.04    30.07249    24.77455    30.85216
   246  O   6.0   -0.29    1.13    1.80    32.10062    24.27732    31.82564
   247  C   4.0   -0.03    4.22    4.04    28.26700    20.42740    31.40775
   248  S   6.0   -0.01    2.39    3.10    26.70155    21.25179    34.39999
   249  H   1.0    0.09    1.08    1.44    31.09536    20.78592    27.43444
   250  H   1.0    0.06    1.09    1.44    26.65817    23.48509    29.28911
   251  H   1.0    0.05    1.07    1.44    27.18771    18.86803    30.58327
   252  H   1.0    0.05    1.10    1.44    30.09096    19.82556    31.89284
   253  N   5.0   -0.20    3.28    1.98    22.65403    28.72946    33.61535
   254  C   4.0    0.03    4.41    4.40    20.61539    28.77168    31.78277
   255  C   4.0    0.15    3.45    3.10    21.66582    27.57754    29.35687
   256  O   6.0   -0.29    1.25    1.80    23.79027    28.01670    28.64491
   257  C   4.0    0.05    4.27    4.14    19.63858    31.42044    31.43496
   258  O   6.0   -0.27    2.15    1.85    18.78748    32.42176    33.75690
   259  C   4.0   -0.07    4.13    3.86    17.51160    31.54724    29.50907
   260  H   1.0    0.10    1.05    1.44    24.18975    29.53173    33.09570
   261  H   1.0    0.05    1.09    1.44    19.15786    27.50509    32.30575
   262  H   1.0    0.05    1.06    1.44    21.18914    32.56245    30.74384
   263  H   1.0    0.14    1.09    1.44    17.40416    31.50896    34.36143
   264  H   1.0    0.06    1.01    1.43    15.95477    30.40353    30.10952
   265  H   1.0    0.05    1.01    1.43    18.08518    30.84216    27.72031
   266  H   1.0    0.04    1.02    1.43    16.91564    33.43508    29.39059
   267  N   5.0   -0.15    3.51    2.08    20.08207    26.01963    28.08080
   268  C   4.0    0.04    4.56    4.61    20.90678    24.82186    25.77383
   269  C   4.0    0.15    3.43    3.09    20.91663    26.78548    23.59746
   270  O   6.0   -0.32    1.28    1.80    18.92747    27.90458    23.06175
   271  C   4.0   -0.03    4.24    4.08    19.22862    22.63036    25.08080
   272  S   6.0   -0.01    2.51    3.10    19.39093    20.05734    27.38106
   273  H   1.0    0.11    1.12    1.45    18.41968    25.59276    28.52768
   274  H   1.0    0.06    1.09    1.44    22.77966    24.06477    26.06316
   275  H   1.0    0.07    1.10    1.44    17.29786    23.16379    25.04726
   276  H   1.0    0.04    1.09    1.44    19.64614    22.04536    23.26110
   277  N   5.0   -0.14    3.50    2.08    23.10171    27.14727    22.53217
   278  C   4.0    0.04    4.44    4.45    23.56041    29.04591    20.61126
   279  C   4.0    0.15    3.44    3.09    24.38239    27.73862    18.19157
   280  O   6.0   -0.31    1.28    1.80    25.91678    25.95506    18.26592
   281  C   4.0   -0.03    4.36    4.30    25.63881    30.83907    21.56318
   282  C   4.0   -0.02    3.57    3.15    26.25291    32.89335    19.77802
   283  C   4.0   -0.04    3.47    3.10    28.38894    32.74530    18.20471
   284  C   4.0   -0.04    3.48    3.11    24.75957    35.03972    19.61241
   285  C   4.0   -0.03    3.46    3.10    28.93003    34.70559    16.52966
   286  C   4.0   -0.05    3.45    3.10    25.28458    36.95420    17.94809
   287  C   4.0    0.07    3.46    3.10    27.39888    36.84683    16.41533
   288  O   6.0   -0.26    2.13    1.84    28.01508    38.75009    14.85219
   289  H   1.0    0.12    1.13    1.45    24.53740    26.23771    23.14474
   290  H   1.0    0.06    1.08    1.44    21.85313    30.09130    20.34528
   291  H   1.0    0.05    1.05    1.44    24.91162    31.60394    23.30405
   292  H   1.0    0.05    1.03    1.43    27.40848    29.87232    22.00305
   293  H   1.0    0.05    1.05    1.44    29.66083    31.27406    18.36322
   294  H   1.0    0.06    1.04    1.43    23.14005    35.12474    20.84026
   295  H   1.0    0.06    1.06    1.44    30.58793    34.69212    15.52326
   296  H   1.0    0.05    1.04    1.43    24.09079    38.57709    17.86835
   297  H   1.0    0.11    1.06    1.44    26.93900    40.14094    15.16289
   298  N   5.0   -0.15    3.43    2.04    23.38417    28.58000    16.03846
   299  C   4.0    0.04    4.31    4.22    24.06781    27.46956    13.60181
   300  C   4.0    0.09    3.22    3.04    26.51848    28.56513    12.47928
   301  O   6.0   -0.29    1.13    1.80    26.79039    30.81561    12.21813
   302  C   4.0   -0.03    4.33    4.25    21.88290    27.90201    11.67745
   303  C   4.0   -0.01    3.57    3.15    22.55884    26.90145     9.10018
   304  C   4.0   -0.04    3.50    3.11    23.69145    28.31630     7.23870
   305  C   4.0   -0.02    3.49    3.11    22.15059    24.32309     8.62265
   306  C   4.0   -0.04    3.44    3.09    24.50027    27.24912     4.98322
   307  C   4.0   -0.03    3.46    3.10    22.88181    23.23586     6.38409
   308  C   4.0    0.06    3.49    3.11    24.14327    24.71979     4.54595
   309  O   6.0   -0.25    2.16    1.85    24.95265    23.54200     2.36834
   310  H   1.0    0.10    1.12    1.45    22.17183    29.89907    16.04890
   311  H   1.0    0.06    1.07    1.44    24.35345    25.49447    14.07707
   312  H   1.0    0.05    1.05    1.44    20.17408    27.13508    12.31945
   313  H   1.0    0.06    1.04    1.43    21.47451    29.87686    11.56326
   314  H   1.0    0.06    1.06    1.44    24.09228    30.20223     7.49253
   315  H   1.0    0.07    1.05    1.44    21.35546    23.11701     9.99297
   316  H   1.0    0.06    1.06    1.44    25.36846    28.35944     3.64057
   317  H   1.0    0.07    1.05    1.44    22.49294    21.32090     6.16201
   318  H   1.0    0.13    1.15    1.45    24.80068    21.92231     2.78661
   319  C   4.0    0.01    3.93    3.51     6.95213     4.98145    26.62075
   320  O   6.0   -0.25    2.02    1.83     7.48796     5.24413    29.12777
   321  H   1.0    0.04    1.01    1.43     6.03433     6.65697    26.02991
   322  H   1.0    0.05    1.02    1.43     8.65945     4.76286    25.61187
   323  H   1.0    0.04    0.98    1.43     5.65865     3.38310    26.33686
   324  H   1.0    0.11    1.00    1.43     5.88440     5.44589    30.11288
   325  C   4.0    0.00    3.94    3.52     3.21561     1.89322    21.23532
   326  O   6.0   -0.27    2.02    1.83     4.89436     3.46452    19.92765
   327  H   1.0    0.06    1.00    1.43     4.06590     0.07204    21.32787
   328  H   1.0    0.04    1.01    1.43     2.95478     2.67890    23.03252
   329  H   1.0    0.04    1.01    1.43     1.52102     1.86771    20.18540
   330  H   1.0    0.12    1.04    1.43     4.28895     5.12262    19.84491
   331  C   4.0    0.01    3.93    3.50    10.07906     4.31202    11.02991
   332  O   6.0   -0.24    2.02    1.83     9.69105     1.92948    12.09652
   333  H   1.0    0.05    1.00    1.43     9.37251     5.66064    12.37724
   334  H   1.0    0.04    0.99    1.43     9.01620     4.50752     9.30928
   335  H   1.0    0.05    1.00    1.43    12.04773     4.65468    10.70319
   336  H   1.0    0.14    1.05    1.44    10.39525     0.71064    11.00390
   337  C   4.0    0.01    3.94    3.53    25.49161     4.27144    26.51289
   338  O   6.0   -0.27    2.02    1.83    26.81820     3.30451    28.48342
   339  H   1.0    0.06    1.00    1.43    26.22335     6.03663    25.87230
   340  H   1.0    0.05    1.00    1.43    23.57417     4.54799    27.09619
   341  H   1.0    0.04    1.01    1.43    25.72173     2.79015    25.16031
   342  H   1.0    0.11    1.04    1.43    28.54058     3.05251    28.02503
   343  C   4.0   -0.00    3.88    3.44    29.23340    14.73451    27.52765
   344  O   6.0   -0.27    2.00    1.83    27.66257    14.18848    29.71973
   345  H   1.0    0.04    0.98    1.43    28.85047    13.43079    25.98700
   346  H   1.0    0.05    1.00    1.43    28.90082    16.64410    26.95221
   347  H   1.0    0.03    0.99    1.43    31.21881    14.69026    27.96229
   348  H   1.0    0.11    1.03    1.43    28.13080    12.57311    30.33290
   349  O   6.0   -0.31    2.06    1.83    24.13968    13.07087    15.76302
   350  H   1.0    0.14    1.00    1.43    25.52771    13.09582    14.72692
   351  H   1.0    0.14    1.01    1.43    22.87971    14.04426    15.24026
   352  O   6.0   -0.30    2.00    1.83    28.45450    12.55225    18.49723
   353  H   1.0    0.14    0.99    1.43    29.89491    13.56937    18.44473
   354  H   1.0    0.16    1.01    1.43    27.21288    13.67519    19.00609
   355  O   6.0   -0.32    2.01    1.83    19.77643    32.79486    15.96663
   356  H   1.0    0.14    1.00    1.43    21.07137    33.92052    15.79304
   357  H   1.0    0.15    1.00    1.43    18.33995    33.72761    15.93625
   358  O   6.0   -0.30    2.01    1.83     9.54362    18.36346    36.65091
   359  H   1.0    0.17    1.03    1.43    11.06247    19.14494    36.43634
   360  H   1.0    0.17    1.04    1.43     8.67063    19.25551    37.85287
   361  O   6.0   -0.32    1.96    1.82    28.39053    12.03533    10.37611
   362  H   1.0    0.12    0.98    1.43    29.72963    13.19852    10.15365
   363  H   1.0    0.11    0.96    1.43    28.16332    11.35820     8.67355
   364  O   6.0   -0.26    1.93    1.82    14.02508    28.08651     7.51763
   365  H   1.0    0.13    0.95    1.42    15.61262    28.77925     6.82207
   366  H   1.0    0.13    0.97    1.43    12.57730    28.74923     6.66151
   367  O   6.0   -0.34    1.97    1.82    11.68803    19.55522    15.37965
   368  H   1.0    0.13    1.00    1.43    12.89937    20.41564    14.45724
   369  H   1.0    0.13    0.97    1.43    10.01476    20.27900    15.26572
   370  O   6.0   -0.32    1.99    1.82    27.29569     9.70042    22.38470
   371  H   1.0    0.14    1.00    1.43    28.72387    10.63426    22.42782
   372  H   1.0    0.16    1.00    1.43    25.79651    10.53995    22.51683
   373  C   4.0    0.01    3.92    3.50     1.76264     1.54949    41.76842
   374  O   6.0   -0.28    2.07    1.83     1.60682    -1.04757    41.36276
   375  H   1.0    0.03    0.99    1.43     2.65581     1.97401    43.54255
   376  H   1.0    0.04    0.99    1.43    -0.04340     2.49922    41.62672
   377  H   1.0    0.05    1.01    1.43     2.96030     2.20723    40.29147
   378  H   1.0    0.11    1.04    1.43     0.68760    -1.80066    42.70162
   379  C   4.0    0.00    3.91    3.48    -0.62371    -0.49706    34.70824
   380  O   6.0   -0.26    2.04    1.83     1.35478    -1.52963    36.20315
   381  H   1.0    0.04    0.98    1.43    -1.47541     1.13414    35.62745
   382  H   1.0    0.04    0.99    1.43    -2.05780    -1.91156    34.38920
   383  H   1.0    0.06    1.01    1.43     0.14516    -0.01696    32.96908
   384  H   1.0    0.13    1.05    1.44     0.75514    -1.94758    37.85447
   385  C   4.0    0.00    3.91    3.48    12.49129    32.02579    34.70824
   386  O   6.0   -0.27    2.03    1.83    14.46978    30.99322    36.20315
   387  H   1.0    0.03    0.99    1.43    11.63959    33.65699    35.62745
   388  H   1.0    0.05    0.99    1.43    11.05720    30.61130    34.38920
   389  H   1.0    0.05    1.01    1.43    13.26016    32.50589    32.96908
   390  H   1.0    0.11    1.02    1.43    13.87014    30.57528    37.85447
   391  C   4.0   -0.00    3.94    3.52    16.33061    34.41608    21.23532
   392  O   6.0   -0.27    2.01    1.83    18.00936    35.98738    19.92765
   393  H   1.0    0.06    1.00    1.43    17.18090    32.59490    21.32787
   394  H   1.0    0.04    1.01    1.43    16.06978    35.20176    23.03252
   395  H   1.0    0.04    1.01    1.43    14.63602    34.39057    20.18540
   396  H   1.0    0.11    1.04    1.43    17.40395    37.64547    19.84491
   397  C   4.0    0.01    3.94    3.53     3.21187     5.13284    34.95108
   398  O   6.0   -0.27    2.24    1.87     2.65364     7.58213    35.61843
   399  H   1.0    0.05    0.99    1.43     4.20185     4.09088    36.40960
   400  H   1.0    0.04    0.99    1.43     1.53927     4.09548    34.41692
   401  H   1.0    0.04    1.00    1.43     4.39518     5.23187    33.28722
   402  H   1.0    0.15    1.11    1.44     1.56962     7.55437    37.10621
   403  C   4.0    0.06    4.35    4.29     5.29533    11.31144    31.53126
   404  O   6.0   -0.25    2.08    1.84     2.71207    10.83996    31.89355
   405  H   1.0    0.07    1.08    1.44     5.69659    12.82152    32.75070
   406  H   1.0    0.07    1.08    1.44     6.32167     9.65059    31.63783
   407  H   1.0    0.05    0.95    1.42     5.75537    12.21933    29.63379
   408  H   1.0    0.11    1.00    1.43     2.21835     9.41437    30.77941
   409  C   4.0    0.01    3.95    3.53    -2.48200     4.27144    26.51289
   410  O   6.0   -0.26    2.03    1.83    -1.15542     3.30451    28.48342
   411  H   1.0    0.05    1.00    1.43    -1.75026     6.03663    25.87230
   412  H   1.0    0.05    1.00    1.43    -4.39945     4.54799    27.09619
   413  H   1.0    0.04    1.01    1.43    -2.25188     2.79015    25.16031
   414  H   1.0    0.11    1.04    1.43     0.56697     3.05251    28.02503
   415  C   4.0    0.01    3.89    3.44     1.25978    14.73451    27.52765
   416  O   6.0   -0.27    2.01    1.83    -0.31104    14.18848    29.71973
   417  H   1.0    0.04    0.98    1.43     0.87686    13.43079    25.98700
   418  H   1.0    0.05    1.00    1.43     0.92721    16.64410    26.95221
   419  H   1.0    0.05    0.99    1.43     3.24520    14.69026    27.96229
   420  H   1.0    0.14    1.07    1.44     0.15718    12.57311    30.33290
   421  C   4.0    0.03    3.07    3.02    15.51851    21.30670    10.27618
   422  O   6.0   -0.25    1.02    1.80    16.64006    19.53588     8.35227
   423  H   1.0    0.06    1.98    2.45    15.93001    23.09359    10.34523
   424  H   1.0    0.04    1.61    1.71    16.78166    23.36486    11.10990
   425  H   1.0    0.04    0.50    1.40    15.25502    19.86476    12.56433
   426  H   1.0    0.09    0.13    1.40    13.61040    19.91063     7.37482
   427  C   4.0    0.02    3.07    3.02     2.40351   -11.21616    10.27618
   428  O   6.0   -0.30    0.99    1.80     3.52506   -12.98698     8.35227
   429  H   1.0    0.05    1.98    2.45     2.81501    -9.42927    10.34523
   430  H   1.0    0.03    1.61    1.71     3.66666    -9.15799    11.10990
   431  H   1.0    0.04    0.50    1.40     2.14002   -12.65810    12.56433
   432  H   1.0    0.07    0.13    1.40     0.49540   -12.61223     7.37482
   433  O   6.0   -0.31    2.06    1.83    -3.83394    13.07087    15.76302
   434  H   1.0    0.14    1.00    1.43    -2.44590    13.09582    14.72692
   435  H   1.0    0.14    1.01    1.43    -5.09390    14.04426    15.24026
   436  O   6.0   -0.30    2.00    1.83     0.48089    12.55225    18.49723
   437  H   1.0    0.15    0.99    1.43     1.92130    13.56937    18.44473
   438  H   1.0    0.16    1.01    1.43    -0.76074    13.67519    19.00609
   439  O   6.0   -0.31    2.02    1.83     6.66142     0.27200    15.96663
   440  H   1.0    0.15    1.01    1.43     7.95636     1.39766    15.79304
   441  H   1.0    0.16    1.00    1.43     5.22495     1.20475    15.93625
   442  O   6.0   -0.28    1.96    1.82     5.40653    -4.86206    41.62191
   443  H   1.0    0.15    1.00    1.43     6.77305    -4.29918    40.67656
   444  H   1.0    0.14    1.01    1.43     4.25834    -3.45622    41.56456
   445  O   6.0   -0.31    1.96    1.82     0.41692    12.03533    10.37611
   446  H   1.0    0.12    0.98    1.43     1.75602    13.19852    10.15365
   447  H   1.0    0.12    0.96    1.43     0.18971    11.35820     8.67355
   448  O   6.0   -0.30    1.94    1.82     1.24815     7.83302    14.04299
   449  H   1.0    0.12    0.95    1.42     3.05353     7.33575    14.29666
   450  H   1.0    0.14    0.97    1.43     1.05541     9.40703    14.94825
   451  O   6.0   -0.27    1.93    1.82     0.91008    -4.43635     7.51763
   452  H   1.0    0.13    0.95    1.42     2.49762    -3.74361     6.82207
   453  H   1.0    0.13    0.97    1.43    -0.53770    -3.77363     6.66151
   454  O   6.0   -0.34    1.97    1.82    -1.42698   -12.96764    15.37965
   455  H   1.0    0.13    1.00    1.43    -0.21563   -12.10722    14.45724
   456  H   1.0    0.12    0.97    1.43    -3.10024   -12.24386    15.26572
   457  O   6.0   -0.32    1.99    1.82    -0.67792     9.70042    22.38470
   458  H   1.0    0.14    1.00    1.43     0.75025    10.63426    22.42782
   459  H   1.0    0.16    1.00    1.43    -2.17710    10.53995    22.51683
   460  N   5.0   -0.20    3.25    1.97    39.49835    17.22339    24.95805
   461  C   4.0    0.03    4.26    4.11    39.50446    18.21747    22.38662
   462  C   4.0    0.07    3.18    3.03    40.46932    20.97681    22.39223
   463  O   6.0   -0.30    1.13    1.80    41.13952    22.06378    24.28319
   464  C   4.0   -0.04    4.35    4.30    36.89848    17.89218    21.22285
   465  C   4.0   -0.02    3.56    3.14    36.23484    15.19862    20.91556
   466  C   4.0   -0.05    3.44    3.09    37.33569    13.83247    18.96396
   467  C   4.0   -0.04    3.43    3.09    34.73016    13.89607    22.70847
   468  C   4.0   -0.05    3.31    3.06    36.79619    11.29559    18.60317
   469  C   4.0   -0.05    3.32    3.06    34.24523    11.30930    22.43640
   470  C   4.0   -0.04    3.34    3.06    35.16882    10.04478    20.30612
   471  H   1.0    0.09    1.05    1.44    38.15848    17.69909    26.05636
   472  H   1.0    0.03    1.07    1.44    40.88205    17.19258    21.31407
   473  H   1.0    0.05    1.06    1.44    35.64884    18.91015    22.39973
   474  H   1.0    0.04    1.04    1.43    36.85113    18.76477    19.36940
   475  H   1.0    0.04    1.00    1.43    38.51203    14.89141    17.55712
   476  H   1.0    0.05    1.03    1.43    33.99714    14.97218    24.26904
   477  H   1.0    0.04    1.00    1.43    37.72884    10.30532    16.99753
   478  H   1.0    0.05    1.03    1.43    32.99873    10.36989    23.74644
   479  H   1.0    0.04    1.02    1.43    34.73113     8.06224    20.08004
   480  N   5.0   -0.21    3.24    1.97   -15.56165     6.21875    31.37384
   481  C   4.0    0.04    4.38    4.34   -13.84213     7.96147    30.11089
   482  C   4.0    0.15    3.49    3.11   -15.34237    10.30458    29.23533
   483  O   6.0   -0.31    1.24    1.80   -17.61782    10.20079    28.80822
   484  C   4.0   -0.03    4.18    3.95   -12.30335     6.73584    27.99978
   485  S   6.0   -0.04    2.44    3.10   -14.05438     5.59004    25.27945
   486  H   1.0    0.10    1.05    1.44   -17.20820     6.07592    30.67598
   487  H   1.0    0.05    1.07    1.44   -12.56810     8.65851    31.57834
   488  H   1.0    0.06    1.09    1.44   -10.94403     8.06818    27.26922
   489  H   1.0    0.04    1.10    1.44   -11.48914     5.00948    28.69691
   490  N   5.0   -0.15    3.48    2.07   -13.96860    12.41901    29.12619
   491  C   4.0    0.03    4.24    4.07   -15.04165    14.86989    28.62833
   492  C   4.0    0.08    3.19    3.03   -14.66605    15.67015    25.82441
   493  O   6.0   -0.32    1.18    1.80   -12.81946    15.05745    24.60318
   494  C   4.0   -0.08    4.17    3.94   -13.80090    16.83210    30.30683
   495  H   1.0    0.11    1.14    1.45   -12.24382    12.23379    29.41958
   496  H   1.0    0.05    1.05    1.44   -17.07731    14.71979    29.00437
   497  H   1.0    0.05    1.05    1.44   -11.87911    16.73803    29.99429
   498  H   1.0    0.04    1.01    1.43   -14.32109    16.58013    32.24963
   499  H   1.0    0.03    1.03    1.43   -14.30710    18.65394    29.87204
   500  N   5.0   -0.20    3.26    1.97    -1.59026   -15.29947    24.95805
   501  C   4.0    0.03    4.34    4.28    -1.58415   -14.30539    22.38662
   502  C   4.0    0.15    3.41    3.08    -0.61930   -11.54605    22.39223
   503  O   6.0   -0.30    1.30    1.80     0.05090   -10.45908    24.28319
   504  C   4.0   -0.04    4.36    4.32    -4.19013   -14.63068    21.22285
   505  C   4.0   -0.02    3.56    3.14    -4.85378   -17.32424    20.91556
   506  C   4.0   -0.05    3.44    3.09    -3.75293   -18.69039    18.96396
   507  C   4.0   -0.04    3.43    3.09    -6.35845   -18.62679    22.70847
   508  C   4.0   -0.05    3.31    3.06    -4.29243   -21.22726    18.60317
   509  C   4.0   -0.05    3.32    3.06    -6.84338   -21.21356    22.43640
   510  C   4.0   -0.05    3.34    3.06    -5.91979   -22.47807    20.30612
   511  H   1.0    0.11    1.05    1.44    -2.93014   -14.82377    26.05636
   512  H   1.0    0.04    1.07    1.44    -0.20657   -15.33028    21.31407
   513  H   1.0    0.05    1.06    1.44    -5.43978   -13.61271    22.39973
   514  H   1.0    0.04    1.04    1.43    -4.23749   -13.75809    19.36940
   515  H   1.0    0.05    1.00    1.43    -2.57659   -17.63145    17.55712
   516  H   1.0    0.06    1.03    1.43    -7.09148   -17.55067    24.26904
   517  H   1.0    0.04    1.00    1.43    -3.35978   -22.21754    16.99753
   518  H   1.0    0.04    1.03    1.43    -8.08989   -22.15296    23.74644
   519  H   1.0    0.03    1.02    1.43    -6.35749   -24.46062    20.08004
   520  N   5.0   -0.15    3.48    2.07    -0.42260   -10.39902    20.09970
   521  C   4.0    0.03    4.46    4.47     0.61990    -7.85585    19.91909
   522  C   4.0    0.16    3.49    3.11    -0.90771    -6.03136    21.53450
   523  O   6.0   -0.32    1.26    1.80    -3.21703    -5.97651    21.47854
   524  C   4.0   -0.04    4.35    4.29     0.48130    -7.03906    17.17369
   525  C   4.0   -0.03    4.23    4.06     1.76538    -4.57604    16.68634
   526  C   4.0    0.24    3.14    3.03     1.69271    -3.86902    13.90836
   527  O   6.0   -0.28    1.21    1.80     2.70752    -1.86201    13.35486
   528  O   6.0   -0.29    1.23    1.80     0.87397    -5.36848    12.30186
   529  H   1.0    0.09    1.12    1.45    -0.91055   -11.46809    18.72641
   530  H   1.0    0.05    1.08    1.44     2.55141    -7.94604    20.47273
   531  H   1.0    0.04    1.01    1.43     1.37049    -8.57028    16.00826
   532  H   1.0    0.05    1.06    1.44    -1.49008    -6.96148    16.77350
   533  H   1.0    0.05    1.04    1.43     0.79288    -3.08151    17.71706
   534  H   1.0    0.05    1.02    1.43     3.75042    -4.52831    17.29180
   535  N   5.0   -0.16    3.42    2.03     0.51699    -4.36908    22.90368
   536  C   4.0    0.01    4.30    4.19    -0.65125    -2.49473    24.44719
   537  C   4.0    0.14    3.32    3.06    -1.49407    -3.39138    27.06161
   538  O   6.0   -0.31    1.22    1.80    -2.34736    -1.87261    28.61493
   539  H   1.0    0.11    1.12    1.45     2.33541    -4.45869    22.90703
   540  H   1.0    0.04    1.05    1.44     0.64217    -0.98210    24.69470
   541  H   1.0    0.05    1.06    1.44    -2.31416    -1.87393    23.49821
   542  N   5.0   -0.13    3.51    2.08    -1.33563    -5.86705    27.46476
   543  C   4.0    0.03    4.42    4.41    -2.11987    -7.04584    29.81989
   544  C   4.0    0.16    3.43    3.09     0.16975    -7.33607    31.58229
   545  O   6.0   -0.30    1.27    1.80     2.29448    -7.78441    30.79910
   546  C   4.0   -0.03    4.34    4.27    -3.32643    -9.62766    29.15044
   547  C   4.0   -0.03    4.24    4.08    -4.05188   -11.16274    31.46865
   548  C   4.0    0.24    3.14    3.03    -5.51563   -13.50149    30.73947
   549  O   6.0   -0.30    1.21    1.80    -6.23691   -13.91485    28.59038
   550  O   6.0   -0.29    1.16    1.80    -6.03662   -15.08800    32.53997
   551  H   1.0    0.11    1.13    1.45    -0.62273    -6.91367    26.16540
   552  H   1.0    0.04    1.07    1.44    -3.59875    -5.94886    30.67038
   553  H   1.0    0.06    1.06    1.44    -5.02815    -9.29906    28.19007
   554  H   1.0    0.08    1.07    1.44    -2.05258   -10.58906    28.01914
   555  H   1.0    0.07    1.06    1.44    -2.43842   -11.81403    32.42536
   556  H   1.0    0.04    1.05    1.44    -5.20699   -10.03831    32.68070
   557  N   5.0   -0.15    3.45    2.05    -0.39752    -7.20281    34.03043
   558  C   4.0    0.05    4.39    4.36     1.45563    -7.67899    35.99423
   559  C   4.0    0.17    3.47    3.10     2.57860   -10.28470    35.76521
   560  O   6.0   -0.29    1.23    1.80     1.17566   -12.18320    35.44331
   561  C   4.0    0.03    4.14    3.88     0.20383    -7.43272    38.71994
   562  O   6.0   -0.23    2.08    1.84     1.74834    -8.21235    40.69133
   563  H   1.0    0.07    1.10    1.44    -2.11559    -6.89319    34.47053
   564  H   1.0    0.07    1.08    1.44     2.86687    -6.27504    35.99022
   565  H   1.0    0.04    0.99    1.43    -0.41564    -5.42066    38.89237
   566  H   1.0    0.05    1.04    1.44    -1.36426    -8.61163    38.75690
   567  H   1.0    0.12    1.05    1.44     0.93293    -7.96668    42.21993
   568  N   5.0   -0.13    3.57    2.13     5.00672   -10.46237    36.10533
   569  C   4.0    0.04    4.42    4.41     6.42798   -12.79212    36.16322
   570  C   4.0    0.07    3.24    3.04     7.86321   -13.01306    38.64963
   571  O   6.0   -0.29    1.17    1.80     8.53835   -11.10828    39.84641
   572  C   4.0   -0.04    4.18    3.95     8.05590   -13.17909    33.89210
   573  S   6.0   -0.00    2.58    3.10    10.00974   -10.37487    33.21915
   574  H   1.0    0.12    1.15    1.45     6.01124    -8.97188    36.36118
   575  H   1.0    0.05    1.08    1.44     5.02959   -14.28844    36.29718
   576  H   1.0    0.03    1.08    1.44     9.32940   -14.75247    34.08994
   577  H   1.0    0.05    1.11    1.44     7.07114   -13.57846    32.15446
   578  N   5.0   -0.21    3.26    1.97    16.83222    13.23833    -5.93769
   579  C   4.0    0.04    4.25    4.10    18.44810    12.66785    -3.76463
   580  C   4.0    0.09    3.27    3.05    19.89392    10.30531    -4.53968
   581  O   6.0   -0.29    1.13    1.80    18.71254     8.43966    -5.39247
   582  C   4.0   -0.03    4.32    4.24    16.92791    12.35730    -1.33792
   583  C   4.0    0.16    3.27    3.05    18.45986    11.11894     0.74604
   584  O   6.0   -0.30    1.27    1.80    19.02494     8.89212     0.57558
   585  N   5.0   -0.20    3.23    1.96    18.97147    12.50357     2.73325
   586  H   1.0    0.10    1.05    1.44    16.07837    11.84208    -6.79780
   587  H   1.0    0.06    1.07    1.44    19.69768    14.25943    -3.59976
   588  H   1.0    0.05    1.04    1.44    16.26347    14.17393    -0.76459
   589  H   1.0    0.05    1.05    1.44    15.36963    11.14941    -1.75239
   590  H   1.0    0.12    1.08    1.44    18.59866    14.31128     2.73173
   591  H   1.0    0.13    1.07    1.44    19.95228    11.79063     4.10727
   592  N   5.0   -0.21    3.20    1.95    17.55937     3.93829    -1.19154
   593  C   4.0    0.03    4.22    4.05    14.88477     3.09527    -1.24531
   594  C   4.0    0.08    3.19    3.03    13.56154     3.46104    -3.77000
   595  O   6.0   -0.30    1.13    1.80    11.85010     2.04225    -4.34431
   596  C   4.0   -0.03    4.32    4.24    13.43165     4.58886     0.82600
   597  C   4.0   -0.01    3.55    3.14    14.37229     4.08581     3.49959
   598  C   4.0   -0.04    3.49    3.11    14.01130     1.79067     4.56797
   599  C   4.0   -0.03    3.47    3.10    15.52717     6.02692     4.86071
   600  C   4.0   -0.04    3.40    3.08    14.79731     1.33848     7.03076
   601  C   4.0   -0.03    3.35    3.07    16.28465     5.61106     7.38614
   602  C   4.0   -0.03    3.39    3.08    15.88851     3.25946     8.40482
   603  H   1.0    0.13    1.07    1.44    17.83392     5.72688    -1.14840
   604  H   1.0    0.05    1.07    1.44    14.83634     1.10341    -0.86769
   605  H   1.0    0.05    1.03    1.43    13.53288     6.59633     0.36301
   606  H   1.0    0.05    1.05    1.44    11.53080     3.97043     0.57423
   607  H   1.0    0.05    1.05    1.44    13.01941     0.34863     3.59374
   608  H   1.0    0.07    1.04    1.43    15.85224     7.77214     3.96331
   609  H   1.0    0.06    1.04    1.43    14.54730    -0.46423     7.87463
   610  H   1.0    0.06    1.02    1.43    17.12889     7.14711     8.44435
   611  H   1.0    0.06    1.02    1.43    16.47781     2.94318    10.36280
   612  N   5.0   -0.23    3.19    1.95    -0.90642    14.30038    40.93693
   613  C   4.0    0.03    4.31    4.21     0.58566    12.20909    39.79881
   614  C   4.0    0.07    3.18    3.03     0.24496     9.68241    41.25031
   615  O   6.0   -0.33    1.22    1.80     0.64475     7.71973    40.13578
   616  C   4.0   -0.02    4.30    4.20     3.40818    12.89154    39.63601
   617  C   4.0   -0.06    4.19    3.99     3.70570    15.02985    37.85294
   618  C   4.0   -0.08    4.17    3.94     4.55066    13.45765    42.19081
   619  H   1.0    0.08    1.04    1.43    -0.05259    15.75814    41.65443
   620  H   1.0    0.05    1.06    1.44    -0.04114    11.93661    37.87757
   621  H   1.0    0.05    1.07    1.44     4.35932    11.26714    38.80571
   622  H   1.0    0.06    1.03    1.43     4.63901    16.54995    38.81767
   623  H   1.0    0.04    1.01    1.43     1.98785    15.87278    37.15271
   624  H   1.0    0.07    1.01    1.43     4.90084    14.63856    36.28512
   625  H   1.0    0.04    1.02    1.43     3.73027    15.08859    43.00411
   626  H   1.0    0.05    1.01    1.43     6.51274    13.91065    41.79997
   627  H   1.0    0.04    1.02    1.43     4.54529    11.87505    43.38095
   628  N   5.0   -0.15    3.45    2.05    -6.90846     9.87040    35.00069
   629  C   4.0    0.02    4.43    4.43    -5.18254    10.91923    33.02867
   630  C   4.0    0.15    3.45    3.10    -6.72512    11.67963    30.75367
   631  O   6.0   -0.32    1.31    1.80    -8.91226    10.95377    30.43611
   632  C   4.0   -0.04    4.33    4.25    -3.48172     8.59432    32.40727
   633  C   4.0   -0.04    4.27    4.15    -5.22780     6.34340    32.95101
   634  C   4.0   -0.01    4.27    4.13    -6.67663     7.13078    35.30436
   635  H   1.0    0.04    1.05    1.44    -4.23112    12.54930    33.79312
   636  H   1.0    0.05    1.04    1.43    -2.91852     8.63380    30.47760
   637  H   1.0    0.05    1.03    1.43    -1.88209     8.52924    33.63933
   638  H   1.0    0.05    1.01    1.43    -6.59123     6.10791    31.35153
   639  H   1.0    0.04    1.05    1.44    -4.20728     4.69540    33.24737
   640  H   1.0    0.04    1.05    1.44    -8.40047     6.25128    35.36439
   641  H   1.0    0.04    1.03    1.43    -5.69007     6.79165    37.04760
   642  N   5.0   -0.15    3.52    2.09    -5.59451    13.24374    29.11808
   643  C   4.0    0.04    4.55    4.60    -6.83649    13.81234    26.74452
   644  C   4.0    0.16    3.46    3.10    -7.10474    11.38217    25.11368
   645  O   6.0   -0.30    1.27    1.80    -5.40022     9.84682    25.00123
   646  C   4.0   -0.04    4.21    4.02    -5.42727    15.80534    25.22557
   647  S   6.0   -0.02    2.44    3.10    -4.97233    18.74223    26.99113
   648  H   1.0    0.10    1.13    1.45    -3.92238    13.83328    29.44156
   649  H   1.0    0.06    1.10    1.44    -8.63406    14.56930    27.17573
   650  H   1.0    0.05    1.11    1.45    -3.61372    15.15586    24.85188
   651  H   1.0    0.05    1.07    1.44    -6.50901    16.02237    23.51409
   652  N   5.0   -0.14    3.53    2.10    -9.25322    11.19033    23.84444
   653  C   4.0    0.04    4.57    4.62    -9.64443     9.04903    22.20123
   654  C   4.0    0.15    3.49    3.11    -7.71565     9.12062    20.00120
   655  O   6.0   -0.29    1.24    1.80    -7.23572    11.10306    18.93997
   656  C   4.0   -0.04    4.24    4.08   -12.23860     9.07108    21.09831
   657  S   6.0   -0.01    2.47    3.10   -14.82931     8.81961    23.35633
   658  H   1.0    0.11    1.13    1.45   -10.52684    12.47534    24.00840
   659  H   1.0    0.04    1.09    1.44    -9.34655     7.32850    23.29934
   660  H   1.0    0.05    1.10    1.44   -12.61125    10.84399    20.17607
   661  H   1.0    0.04    1.08    1.44   -12.20924     7.61960    19.70009
   662  N   5.0   -0.09    3.64    2.20    -6.73445     6.84215    19.28924
   663  C   4.0    0.04    4.55    4.61    -4.73082     6.69617    17.35922
   664  C   4.0    0.15    3.40    3.08    -5.73278     6.83679    14.65916
   665  O   6.0   -0.30    1.23    1.80    -7.96346     6.37808    14.09978
   666  C   4.0   -0.04    4.37    4.32    -3.47216     4.17624    17.97561
   667  C   4.0   -0.05    4.27    4.15    -5.62883     2.52998    19.05963
   668  C   4.0   -0.02    4.41    4.39    -7.09475     4.41086    20.59748
   669  H   1.0    0.07    1.07    1.44    -3.46262     8.23939    17.73578
   670  H   1.0    0.05    1.03    1.43    -2.58077     3.32700    16.38032
   671  H   1.0    0.04    1.03    1.43    -1.96644     4.44411    19.31919
   672  H   1.0    0.04    1.03    1.43    -6.84164     1.79734    17.59269
   673  H   1.0    0.03    1.03    1.43    -4.95778     1.01098    20.19354
   674  H   1.0    0.04    1.05    1.44    -9.03232     4.03827    20.61922
   675  H   1.0    0.04    1.05    1.44    -6.27186     4.46815    22.41264
   676  N   5.0   -0.15    3.42    2.03    -4.02969     7.38486    12.95543
   677  C   4.0    0.02    4.29    4.18    -4.61353     7.39166    10.24886
   678  C   4.0    0.15    3.30    3.05    -5.70811     9.85662     9.20711
   679  O   6.0   -0.31    1.21    1.80    -6.45976     9.97545     7.05908
   680  H   1.0    0.11    1.13    1.45    -2.29852     7.47140    13.34456
   681  H   1.0    0.05    1.04    1.43    -2.96080     6.95165     9.20211
   682  H   1.0    0.06    1.06    1.44    -5.99585     5.99849     9.89680
   683  N   5.0   -0.15    3.52    2.09    -5.80829    11.79211    10.89158
   684  C   4.0    0.03    4.40    4.38    -7.17955    14.10182    10.37190
   685  C   4.0    0.14    3.38    3.07    -5.55726    16.49469    10.47349
   686  O   6.0   -0.32    1.24    1.80    -6.52241    18.57838    10.29108
   687  C   4.0   -0.04    4.41    4.40    -9.39749    14.32752    12.25515
   688  C   4.0   -0.02    4.21    4.03   -11.39489    12.28265    12.13575
   689  C   4.0   -0.08    4.16    3.92   -13.23522    12.62835    14.25469
   690  C   4.0   -0.08    4.14    3.87   -12.72427    12.36692     9.55287
   691  H   1.0    0.10    1.13    1.45    -5.15787    11.61964    12.56767
   692  H   1.0    0.06    1.07    1.44    -7.95230    14.05993     8.48021
   693  H   1.0    0.04    1.05    1.44    -8.78287    14.43594    14.15655
   694  H   1.0    0.04    1.05    1.44   -10.28115    16.12859    11.96821
   695  H   1.0    0.06    1.06    1.44   -10.55731    10.39852    12.33872
   696  H   1.0    0.03    1.02    1.43   -14.02367    14.48214    14.02649
   697  H   1.0    0.05    1.01    1.43   -12.27837    12.57328    16.03679
   698  H   1.0    0.04    1.01    1.43   -14.58482    11.14560    14.35444
   699  H   1.0    0.03    1.00    1.43   -13.52695    14.18841     9.17398
   700  H   1.0    0.04    1.01    1.43   -14.07582    10.87931     9.43272
   701  H   1.0    0.05    1.01    1.43   -11.37966    11.83326     8.13789
   702  N   5.0   -0.15    3.38    2.01    -3.05953    16.16374    10.73558
   703  C   4.0    0.02    4.26    4.12    -1.35349    18.39066    10.89105
   704  C   4.0    0.15    3.35    3.06    -1.32892    19.65896    13.45643
   705  O   6.0   -0.30    1.28    1.80    -0.38620    21.77846    13.66479
   706  H   1.0    0.10    1.10    1.44    -2.22642    14.50275    10.78068
   707  H   1.0    0.05    1.05    1.44     0.52389    17.86455    10.47465
   708  H   1.0    0.06    1.05    1.44    -1.82813    19.89362     9.64272
   709  N   5.0   -0.14    3.50    2.08    -2.34045    18.45674    15.45394
   710  C   4.0    0.04    4.46    4.48    -2.67584    19.77131    17.78802
   711  C   4.0    0.15    3.42    3.08    -0.44201    19.47467    19.58983
   712  O   6.0   -0.31    1.25    1.80     0.61359    17.44369    19.98314
   713  C   4.0   -0.05    4.37    4.33    -5.06705    18.71440    19.13087
   714  C   4.0   -0.02    4.20    4.01    -7.52762    19.12607    17.62744
   715  C   4.0   -0.08    4.13    3.85    -9.69497    17.80301    18.96695
   716  C   4.0   -0.07    4.13    3.87    -8.05110    21.90361    17.09118
   717  H   1.0    0.09    1.13    1.45    -2.85694    16.75645    15.46444
   718  H   1.0    0.07    1.10    1.44    -2.72280    21.76637    17.42153
   719  H   1.0    0.06    1.04    1.43    -4.82536    16.77777    19.55485
   720  H   1.0    0.04    1.04    1.43    -5.33822    19.68691    20.89677
   721  H   1.0    0.05    1.09    1.44    -7.27859    18.31090    15.81723
   722  H   1.0    0.04    1.02    1.43   -11.41198    18.01539    17.98820
   723  H   1.0    0.05    1.01    1.43   -10.03280    18.48322    20.84480
   724  H   1.0    0.06    1.01    1.43    -9.41283    15.80691    19.14353
   725  H   1.0    0.04    1.02    1.43    -9.76928    22.13219    16.08949
   726  H   1.0    0.05    1.02    1.43    -6.59593    22.66899    15.94874
   727  H   1.0    0.05    1.01    1.43    -8.21971    22.95255    18.79552
   728  N   5.0   -0.15    3.53    2.10     0.26904    21.61318    20.71936
   729  C   4.0    0.04    4.46    4.48     2.16865    21.73016    22.70412
   730  C   4.0    0.15    3.43    3.09     0.93885    22.83969    25.03459
   731  O   6.0   -0.31    1.28    1.80    -0.71646    24.48264    24.90118
   732  C   4.0    0.06    4.25    4.09     4.41935    23.37044    21.70185
   733  O   6.0   -0.26    2.16    1.85     6.13168    23.41682    23.76250
   734  C   4.0   -0.07    4.13    3.87     3.71480    25.97082    20.81855
   735  H   1.0    0.11    1.12    1.45    -0.53909    23.18721    20.24092
   736  H   1.0    0.06    1.08    1.44     2.66024    19.78743    23.02655
   737  H   1.0    0.05    1.05    1.44     5.28468    22.35120    20.16341
   738  H   1.0    0.15    1.08    1.44     7.43588    24.50710    23.35381
   739  H   1.0    0.05    1.02    1.43     2.83674    27.02179    22.29319
   740  H   1.0    0.06    1.02    1.43     2.45951    25.89890    19.28000
   741  H   1.0    0.05    1.04    1.43     5.34579    26.87666    20.26817
   742  N   5.0   -0.14    3.45    2.05     1.64609    21.85087    27.27113
   743  C   4.0    0.04    4.49    4.52     0.47101    22.64983    29.63180
   744  C   4.0    0.15    3.48    3.10     2.09888    24.77455    30.85216
   745  O   6.0   -0.30    1.26    1.80     4.12700    24.27732    31.82564
   746  C   4.0   -0.03    4.13    3.86     0.29339    20.42740    31.40775
   747  S   6.0   -0.06    2.34    3.10    -1.27207    21.25179    34.39999
   748  H   1.0    0.10    1.09    1.44     3.12174    20.78592    27.43444
   749  H   1.0    0.06    1.09    1.44    -1.31544    23.48509    29.28911
   750  H   1.0    0.05    1.07    1.44    -0.78591    18.86803    30.58327
   751  H   1.0    0.07    1.10    1.44     2.11734    19.82556    31.89284
   752  H   1.0    0.04    0.99    1.43    -2.16062    19.62124    35.70156
   753  N   5.0   -0.14    3.47    2.06     1.21932    27.14499    30.57104
   754  C   4.0    0.04    4.54    4.59     2.75959    29.26849    31.30778
   755  C   4.0    0.14    3.49    3.11     1.63006    30.60836    33.58531
   756  O   6.0   -0.31    1.27    1.80    -0.54969    31.34636    33.51941
   757  C   4.0   -0.02    4.36    4.32     3.06284    31.23606    29.11004
   758  C   4.0   -0.04    4.24    4.08     4.19983    29.95626    26.82222
   759  C   4.0   -0.08    4.19    3.98     4.68005    33.44401    30.01808
   760  C   4.0   -0.08    4.09    3.78     4.54585    31.78352    24.64496
   761  H   1.0    0.11    1.10    1.44    -0.45517    27.36555    29.94639
   762  H   1.0    0.06    1.11    1.45     4.53984    28.43928    31.63135
   763  H   1.0    0.05    1.07    1.44     1.21330    31.91231    28.62922
   764  H   1.0    0.06    1.04    1.43     5.95136    29.09693    27.34657
   765  H   1.0    0.06    1.04    1.43     2.94636    28.43771    26.29291
   766  H   1.0    0.04    1.04    1.43     3.73088    34.19078    31.60363
   767  H   1.0    0.04    1.02    1.43     4.87154    34.84881    28.63887
   768  H   1.0    0.05    1.01    1.43     6.52781    33.09332    30.65620
   769  H   1.0    0.04    1.04    1.43     5.87366    33.09746    25.18530
   770  H   1.0    0.04    1.02    1.43     2.88749    32.67318    24.09244
   771  H   1.0    0.04    1.01    1.43     5.31254    30.80450    23.03250
   772  N   5.0   -0.11    3.64    2.20     3.12751    31.00417    35.65125
   773  C   4.0    0.02    4.51    4.55     5.70712    30.17288    35.93777
   774  C   4.0    0.15    3.41    3.08     6.01221    27.39671    36.62018
   775  O   6.0   -0.32    1.30    1.80     8.01407    26.34102    36.28967
   776  C   4.0   -0.05    4.36    4.30     6.67266    31.88865    38.14351
   777  C   4.0   -0.06    4.23    4.07     4.25911    32.41370    39.76801
   778  C   4.0   -0.01    4.37    4.32     2.26563    32.68946    37.75812
   779  H   1.0    0.04    1.06    1.44     6.83369    30.56166    34.27406
   780  H   1.0    0.04    1.05    1.44     8.00788    30.95852    39.22994
   781  H   1.0    0.03    1.04    1.43     7.42460    33.58999    37.39995
   782  H   1.0    0.03    1.03    1.43     3.87300    30.78119    40.92168
   783  H   1.0    0.03    1.04    1.43     4.46222    34.07299    40.85827
   784  H   1.0    0.04    1.03    1.43     0.44658    32.04777    38.39405
   785  H   1.0    0.04    1.04    1.43     2.05785    34.52438    36.98025
   786  N   5.0   -0.15    3.38    2.01     4.01539    26.16839    37.61702
   787  C   4.0    0.02    4.21    4.03     4.17767    23.50208    38.19060
   788  C   4.0    0.07    3.13    3.03     5.87918    22.90484    40.41687
   789  O   6.0   -0.31    1.17    1.80     7.24695    20.96840    40.42308
   790  H   1.0    0.08    1.09    1.44     2.46700    26.90684    38.03345
   791  H   1.0    0.04    1.05    1.44     2.38782    22.66800    38.45055
   792  H   1.0    0.08    1.06    1.44     4.99529    22.66750    36.55683
   793  N   5.0   -0.21    3.28    1.98    -5.31959    28.72946    33.61535
   794  C   4.0    0.03    4.41    4.40    -7.35823    28.77168    31.78277
   795  C   4.0    0.15    3.45    3.09    -6.30780    27.57754    29.35687
   796  O   6.0   -0.30    1.27    1.80    -4.18334    28.01670    28.64491
   797  C   4.0    0.05    4.27    4.14    -8.33503    31.42044    31.43496
   798  O   6.0   -0.28    2.14    1.85    -9.18614    32.42176    33.75690
   799  C   4.0   -0.08    4.13    3.86   -10.46201    31.54724    29.50907
   800  H   1.0    0.13    1.08    1.44    -3.78386    29.53173    33.09570
   801  H   1.0    0.03    1.09    1.44    -8.81575    27.50509    32.30575
   802  H   1.0    0.05    1.06    1.44    -6.78448    32.56245    30.74384
   803  H   1.0    0.11    1.04    1.43   -10.56946    31.50896    34.36143
   804  H   1.0    0.03    1.01    1.43   -12.01885    30.40353    30.10952
   805  H   1.0    0.05    1.01    1.43    -9.88843    30.84216    27.72031
   806  H   1.0    0.04    1.02    1.43   -11.05797    33.43508    29.39059
   807  N   5.0   -0.15    3.50    2.08    -7.89154    26.01963    28.08080
   808  C   4.0    0.04    4.56    4.61    -7.06683    24.82186    25.77383
   809  C   4.0    0.15    3.43    3.09    -7.05699    26.78548    23.59746
   810  O   6.0   -0.31    1.22    1.80    -9.04614    27.90458    23.06175
   811  C   4.0   -0.04    4.24    4.08    -8.74500    22.63036    25.08080
   812  S   6.0   -0.04    2.45    3.10    -8.58268    20.05734    27.38106
   813  H   1.0    0.08    1.10    1.44    -9.55393    25.59276    28.52768
   814  H   1.0    0.06    1.09    1.44    -5.19396    24.06477    26.06316
   815  H   1.0    0.05    1.10    1.44   -10.67575    23.16379    25.04726
   816  H   1.0    0.04    1.09    1.44    -8.32747    22.04536    23.26110
   817  N   5.0   -0.14    3.50    2.08    -4.87190    27.14727    22.53217
   818  C   4.0    0.04    4.44    4.45    -4.41320    29.04591    20.61126
   819  C   4.0    0.14    3.44    3.09    -3.59122    27.73862    18.19157
   820  O   6.0   -0.31    1.28    1.80    -2.05683    25.95506    18.26592
   821  C   4.0   -0.03    4.36    4.30    -2.33481    30.83907    21.56318
   822  C   4.0   -0.02    3.57    3.15    -1.72071    32.89335    19.77802
   823  C   4.0   -0.04    3.47    3.10     0.41533    32.74530    18.20471
   824  C   4.0   -0.05    3.48    3.11    -3.21404    35.03972    19.61241
   825  C   4.0   -0.02    3.46    3.10     0.95641    34.70559    16.52966
   826  C   4.0   -0.05    3.45    3.10    -2.68903    36.95420    17.94809
   827  C   4.0    0.07    3.46    3.10    -0.57473    36.84683    16.41533
   828  O   6.0   -0.23    2.14    1.85     0.04146    38.75009    14.85219
   829  H   1.0    0.12    1.13    1.45    -3.43622    26.23771    23.14474
   830  H   1.0    0.05    1.08    1.44    -6.12049    30.09130    20.34528
   831  H   1.0    0.05    1.05    1.44    -3.06200    31.60394    23.30405
   832  H   1.0    0.05    1.03    1.43    -0.56514    29.87232    22.00305
   833  H   1.0    0.05    1.05    1.44     1.68722    31.27406    18.36322
   834  H   1.0    0.04    1.04    1.43    -4.83356    35.12474    20.84026
   835  H   1.0    0.07    1.06    1.44     2.61431    34.69212    15.52326
   836  H   1.0    0.04    1.04    1.43    -3.88282    38.57709    17.86835
   837  H   1.0    0.11    1.06    1.44    -1.03462    40.14094    15.16289
   838  N   5.0   -0.15    3.43    2.03    -4.58945    28.58000    16.03846
   839  C   4.0    0.04    4.42    4.41    -3.90581    27.46956    13.60181
   840  C   4.0    0.16    3.43    3.09    -1.45514    28.56513    12.47928
   841  O   6.0   -0.30    1.23    1.80    -1.18323    30.81561    12.21813
   842  C   4.0   -0.04    4.33    4.26    -6.09072    27.90201    11.67745
   843  C   4.0   -0.02    3.57    3.15    -5.41478    26.90145     9.10018
   844  C   4.0   -0.04    3.50    3.11    -4.28216    28.31630     7.23870
   845  C   4.0   -0.04    3.49    3.11    -5.82303    24.32309     8.62265
   846  C   4.0   -0.03    3.44    3.09    -3.47334    27.24912     4.98322
   847  C   4.0   -0.04    3.46    3.10    -5.09180    23.23586     6.38409
   848  C   4.0    0.07    3.49    3.11    -3.83034    24.71979     4.54595
   849  O   6.0   -0.26    2.12    1.84    -3.02096    23.54200     2.36834
   850  H   1.0    0.08    1.09    1.44    -5.80179    29.89907    16.04890
   851  H   1.0    0.06    1.07    1.44    -3.62016    25.49447    14.07707
   852  H   1.0    0.04    1.05    1.44    -7.79953    27.13508    12.31945
   853  H   1.0    0.04    1.04    1.43    -6.49910    29.87686    11.56326
   854  H   1.0    0.06    1.06    1.44    -3.88134    30.20223     7.49253
   855  H   1.0    0.07    1.05    1.44    -6.61816    23.11701     9.99297
   856  H   1.0    0.06    1.06    1.44    -2.60515    28.35944     3.64057
   857  H   1.0    0.06    1.05    1.44    -5.48067    21.32090     6.16201
   858  H   1.0    0.13    1.13    1.45    -3.17293    21.92231     2.78661
   859  N   5.0   -0.15    3.47    2.06     0.21883    26.80960    11.75666
   860  C   4.0    0.04    4.42    4.41     2.37647    27.46742    10.16478
   861  C   4.0    0.19    3.29    3.05     2.35832    26.03144     7.68382
   862  O   6.0   -0.30    1.17    1.80     3.28809    27.02357     5.78319
   863  C   4.0   -0.04    4.37    4.33     4.84886    27.21034    11.53137
   864  C   4.0   -0.02    4.20    4.00     5.52349    29.43524    13.34569
   865  C   4.0   -0.07    4.15    3.90     7.57282    28.63610    15.07364
   866  C   4.0   -0.07    4.12    3.84     6.07876    31.81629    11.85362
   867  O   6.0   -0.24    2.11    1.84     1.52641    23.76103     7.80243
   868  H   1.0    0.12    1.13    1.45    -0.14725    25.09838    12.14967
   869  H   1.0    0.06    1.09    1.44     2.22295    29.44569     9.65659
   870  H   1.0    0.05    1.03    1.43     4.80154    25.33720    12.38274
   871  H   1.0    0.05    1.05    1.44     6.38635    27.08740    10.20894
   872  H   1.0    0.05    1.06    1.44     3.84467    29.71512    14.51980
   873  H   1.0    0.06    1.02    1.43     9.24186    28.18994    14.04241
   874  H   1.0    0.05    1.02    1.43     6.99227    26.99493    16.10344
   875  H   1.0    0.04    1.01    1.43     7.99892    30.11656    16.39718
   876  H   1.0    0.05    1.01    1.43     4.52052    32.42107    10.71777
   877  H   1.0    0.05    1.02    1.43     7.70459    31.46444    10.71908
   878  H   1.0    0.05    1.01    1.43     6.57063    33.30863    13.16045
   879  H   1.0    0.13    1.01    1.43     1.67373    22.88213     6.12185
   880  N   5.0   -0.15    3.43    2.04     6.38055    39.36501    19.28924
   881  C   4.0    0.02    4.35    4.29     8.38419    39.21902    17.35922
   882  C   4.0    0.06    3.17    3.03     7.38222    39.35965    14.65916
   883  O   6.0   -0.28    1.13    1.80     5.15155    38.90094    14.09978
   884  C   4.0   -0.05    4.36    4.31     9.64284    36.69910    17.97561
   885  C   4.0   -0.05    4.27    4.15     7.48617    35.05284    19.05963
   886  C   4.0   -0.02    4.31    4.21     6.02025    36.93372    20.59748
   887  H   1.0    0.02    1.06    1.44     9.65238    40.76225    17.73578
   888  H   1.0    0.04    1.03    1.43    10.53423    35.84985    16.38032
   889  H   1.0    0.03    1.03    1.43    11.14856    36.96697    19.31919
   890  H   1.0    0.04    1.03    1.43     6.27337    34.32019    17.59269
   891  H   1.0    0.03    1.03    1.43     8.15723    33.53384    20.19354
   892  H   1.0    0.04    1.05    1.44     4.08268    36.56113    20.61922
   893  H   1.0    0.03    1.05    1.44     6.84314    36.99100    22.41264
   894  N   5.0   -0.22    3.11    1.94    11.79909   -16.35912    10.73558
   895  C   4.0    0.00    4.15    3.91    13.50513   -14.13220    10.89105
   896  C   4.0    0.14    3.35    3.06    13.52970   -12.86390    13.45643
   897  O   6.0   -0.31    1.28    1.80    14.47241   -10.74440    13.66479
   898  H   1.0    0.08    1.03    1.43    12.63219   -18.02011    10.78068
   899  H   1.0    0.04    1.05    1.44    15.38250   -14.65831    10.47465
   900  H   1.0    0.05    1.05    1.44    13.03048   -12.62923     9.64272
   901  N   5.0   -0.15    3.50    2.08    12.51816   -14.06612    15.45394
   902  C   4.0    0.04    4.46    4.48    12.18277   -12.75154    17.78802
   903  C   4.0    0.15    3.42    3.08    14.41660   -13.04819    19.58983
   904  O   6.0   -0.31    1.22    1.80    15.47221   -15.07917    19.98314
   905  C   4.0   -0.05    4.37    4.32     9.79156   -13.80846    19.13087
   906  C   4.0   -0.03    4.20    4.01     7.33100   -13.39679    17.62744
   907  C   4.0   -0.08    4.13    3.85     5.16364   -14.71985    18.96695
   908  C   4.0   -0.08    4.13    3.87     6.80752   -10.61924    17.09118
   909  H   1.0    0.08    1.10    1.44    12.00167   -15.76641    15.46444
   910  H   1.0    0.07    1.10    1.44    12.13581   -10.75648    17.42153
   911  H   1.0    0.04    1.04    1.43    10.03325   -15.74509    19.55485
   912  H   1.0    0.04    1.04    1.43     9.52039   -12.83595    20.89677
   913  H   1.0    0.04    1.09    1.44     7.58002   -14.21196    15.81723
   914  H   1.0    0.04    1.02    1.43     3.44663   -14.50747    17.98820
   915  H   1.0    0.04    1.01    1.43     4.82581   -14.03964    20.84480
   916  H   1.0    0.03    1.01    1.43     5.44578   -16.71595    19.14353
   917  H   1.0    0.04    1.02    1.43     5.08933   -10.39067    16.08949
   918  H   1.0    0.05    1.02    1.43     8.26268    -9.85387    15.94874
   919  H   1.0    0.05    1.01    1.43     6.63890    -9.57031    18.79552
   920  N   5.0   -0.15    3.53    2.10    15.12765   -10.90968    20.71936
   921  C   4.0    0.04    4.46    4.48    17.02726   -10.79270    22.70412
   922  C   4.0    0.15    3.43    3.09    15.79746    -9.68317    25.03459
   923  O   6.0   -0.31    1.28    1.80    14.14215    -8.04022    24.90118
   924  C   4.0    0.05    4.25    4.09    19.27797    -9.15241    21.70185
   925  O   6.0   -0.27    2.15    1.85    20.99029    -9.10604    23.76250
   926  C   4.0   -0.07    4.13    3.86    18.57342    -6.55204    20.81855
   927  H   1.0    0.11    1.12    1.45    14.31952    -9.33564    20.24092
   928  H   1.0    0.06    1.08    1.44    17.51885   -12.73543    23.02655
   929  H   1.0    0.04    1.05    1.44    20.14329   -10.17166    20.16341
   930  H   1.0    0.12    1.05    1.44    22.29449    -8.01576    23.35381
   931  H   1.0    0.05    1.02    1.43    17.69535    -5.50107    22.29319
   932  H   1.0    0.06    1.02    1.43    17.31812    -6.62396    19.28000
   933  H   1.0    0.03    1.04    1.43    20.20440    -5.64620    20.26817
   934  N   5.0   -0.14    3.45    2.04    16.50470   -10.67199    27.27113
   935  C   4.0    0.04    4.51    4.55    15.32962    -9.87303    29.63180
   936  C   4.0    0.15    3.48    3.10    16.95749    -7.74831    30.85216
   937  O   6.0   -0.29    1.25    1.80    18.98561    -8.24554    31.82564
   938  C   4.0   -0.04    4.22    4.03    15.15200   -12.09546    31.40775
   939  S   6.0   -0.03    2.40    3.10    13.58655   -11.27107    34.39999
   940  H   1.0    0.09    1.08    1.44    17.98036   -11.73694    27.43444
   941  H   1.0    0.06    1.10    1.44    13.54317    -9.03777    29.28911
   942  H   1.0    0.04    1.06    1.44    14.07271   -13.65483    30.58327
   943  H   1.0    0.05    1.10    1.44    16.97596   -12.69730    31.89284
   944  N   5.0   -0.15    3.47    2.06    16.07794    -5.37786    30.57104
   945  C   4.0    0.04    4.54    4.59    17.61820    -3.25437    31.30778
   946  C   4.0    0.14    3.49    3.11    16.48867    -1.91449    33.58531
   947  O   6.0   -0.31    1.28    1.80    14.30892    -1.17650    33.51941
   948  C   4.0   -0.02    4.36    4.32    17.92145    -1.28680    29.11004
   949  C   4.0   -0.05    4.24    4.08    19.05845    -2.56660    26.82222
   950  C   4.0   -0.08    4.19    3.99    19.53866     0.92115    30.01808
   951  C   4.0   -0.09    4.09    3.78    19.40446    -0.73934    24.64496
   952  H   1.0    0.11    1.10    1.44    14.40344    -5.15731    29.94639
   953  H   1.0    0.06    1.11    1.45    19.39845    -4.08358    31.63135
   954  H   1.0    0.06    1.07    1.44    16.07192    -0.61055    28.62922
   955  H   1.0    0.05    1.04    1.43    20.80997    -3.42593    27.34657
   956  H   1.0    0.06    1.04    1.43    17.80497    -4.08515    26.29291
   957  H   1.0    0.05    1.04    1.43    18.58949     1.66792    31.60363
   958  H   1.0    0.04    1.02    1.43    19.73015     2.32595    28.63887
   959  H   1.0    0.04    1.01    1.43    21.38643     0.57047    30.65620
   960  H   1.0    0.04    1.04    1.43    20.73227     0.57460    25.18530
   961  H   1.0    0.04    1.02    1.43    17.74610     0.15033    24.09244
   962  H   1.0    0.03    1.01    1.43    20.17115    -1.71835    23.03250
   963  N   5.0   -0.11    3.61    2.17    17.98613    -1.51868    35.65125
   964  C   4.0    0.02    4.43    4.43    20.56573    -2.34997    35.93777
   965  C   4.0    0.08    3.20    3.04    20.87082    -5.12615    36.62018
   966  O   6.0   -0.29    1.12    1.80    22.87268    -6.18184    36.28967
   967  C   4.0   -0.05    4.35    4.30    21.53127    -0.63421    38.14351
   968  C   4.0   -0.06    4.23    4.06    19.11772    -0.10916    39.76801
   969  C   4.0   -0.01    4.37    4.32    17.12424     0.16660    37.75812
   970  H   1.0    0.04    1.06    1.44    21.69231    -1.96120    34.27406
   971  H   1.0    0.04    1.05    1.44    22.86649    -1.56434    39.22994
   972  H   1.0    0.03    1.04    1.43    22.28321     1.06713    37.39995
   973  H   1.0    0.04    1.03    1.43    18.73161    -1.74167    40.92168
   974  H   1.0    0.03    1.04    1.43    19.32083     1.55013    40.85827
   975  H   1.0    0.04    1.03    1.43    15.30519    -0.47509    38.39405
   976  H   1.0    0.06    1.04    1.43    16.91646     2.00153    36.98025
   977  N   5.0   -0.21    3.17    1.95    11.53388    -6.68517    39.47099
   978  C   4.0    0.01    4.22    4.04    11.82605    -5.05942    37.28792
   979  C   4.0    0.15    3.40    3.08     9.35594    -4.79165    35.93300
   980  O   6.0   -0.30    1.31    1.80     7.34627    -5.56769    36.82493
   981  H   1.0    0.13    1.08    1.44    10.03566    -7.75126    39.49029
   982  H   1.0    0.05    1.05    1.44    12.28845    -3.16516    37.75208
   983  H   1.0    0.05    1.05    1.44    13.18729    -5.87496    36.02761
   984  N   5.0   -0.14    3.54    2.10     9.53903    -3.79340    33.61535
   985  C   4.0    0.04    4.49    4.53     7.50039    -3.75118    31.78277
   986  C   4.0    0.15    3.45    3.10     8.55081    -4.94531    29.35687
   987  O   6.0   -0.30    1.27    1.80    10.67527    -4.50616    28.64491
   988  C   4.0    0.06    4.27    4.13     6.52358    -1.10242    31.43496
   989  O   6.0   -0.26    2.15    1.85     5.67247    -0.10110    33.75690
   990  C   4.0   -0.07    4.13    3.86     4.39660    -0.97562    29.50907
   991  H   1.0    0.11    1.12    1.45    11.07475    -2.99113    33.09570
   992  H   1.0    0.06    1.09    1.44     6.04286    -5.01776    32.30575
   993  H   1.0    0.05    1.06    1.44     8.07414     0.03959    30.74384
   994  H   1.0    0.15    1.09    1.44     4.28915    -1.01390    34.36143
   995  H   1.0    0.06    1.01    1.43     2.83976    -2.11933    30.10952
   996  H   1.0    0.05    1.01    1.43     4.97018    -1.68070    27.72031
   997  H   1.0    0.04    1.02    1.43     3.80064     0.91223    29.39059
   998  N   5.0   -0.15    3.51    2.08     6.96707    -6.50323    28.08080
   999  C   4.0    0.04    4.54    4.59     7.79178    -7.70100    25.77383
  1000  C   4.0    0.15    3.43    3.09     7.80163    -5.73738    23.59746
  1001  O   6.0   -0.32    1.28    1.80     5.81247    -4.61828    23.06175
[...]
   840  C   3.950    O  841 1.671    N  859 1.285    C  839 0.924
   841  O   1.989    C  840 1.671    N  859 0.202    C  839 0.056
   842  C   3.981    C  843 1.006    H  853 0.969    H  852 0.967    C  839 0.960
   843  C   3.987    C  844 1.451    C  845 1.368    C  842 1.006    C  848 0.097
   844  C   3.992    C  843 1.451    C  846 1.409    H  854 0.971    C  847 0.107
   845  C   3.989    C  847 1.498    C  843 1.368    H  855 0.966    C  846 0.104
   846  C   3.991    C  848 1.421    C  844 1.409    H  856 0.970    C  845 0.104    O  849 0.051
   847  C   3.987    C  845 1.498    C  848 1.331    H  857 0.966    C  844 0.107    O  849 0.052
   848  C   3.938    C  846 1.421    C  847 1.331    O  849 1.052    C  843 0.097
   849  O   2.065    C  848 1.052    H  858 0.859    C  847 0.052    C  846 0.051
   850  H   0.949    N  838 0.923
   851  H   0.996    C  839 0.953
   852  H   0.992    C  842 0.967
   853  H   0.994    C  842 0.969
   854  H   0.997    C  844 0.971
   855  H   0.996    C  845 0.966
   856  H   0.997    C  846 0.970
   857  H   0.996    C  847 0.966
   858  H   0.876    O  849 0.859
   859  N   3.457    C  840 1.285    C  860 0.979    H  868 0.903    O  841 0.202
   860  C   3.968    N  859 0.979    C  863 0.973    C  861 0.949    H  869 0.939
   861  C   3.920    O  862 1.682    O  867 1.234    C  860 0.949
   862  O   1.957    C  861 1.682    O  867 0.181
   863  C   3.986    C  864 0.978    C  860 0.973    H  870 0.972    H  871 0.970
   864  C   3.994    C  865 1.016    C  866 1.011    C  863 0.978    H  872 0.966
   865  C   3.996    C  864 1.016    H  874 0.982    H  873 0.982    H  875 0.981
   866  C   3.994    C  864 1.011    H  877 0.986    H  878 0.980    H  876 0.979
   867  O   2.255    C  861 1.234    H  879 0.809    O  862 0.181
   868  H   0.950    N  859 0.903
   869  H   0.990    C  860 0.939
   870  H   0.998    C  863 0.972
   871  H   0.997    C  863 0.970
   872  H   0.999    C  864 0.966
   873  H   0.999    C  865 0.982
   874  H   0.999    C  865 0.982
   875  H   0.998    C  865 0.981
   876  H   0.996    C  866 0.979
   877  H   0.998    C  866 0.986
   878  H   0.998    C  866 0.980
   879  H   0.841    O  867 0.809
   880  N   3.044    C  881 1.002    C  886 1.000    H 1178 0.954
   881  C   3.991    N  880 1.002    C  882 0.983    C  884 0.965    H  887 0.955    O  883 0.056
   882  C   3.909    O  883 1.908    C  881 0.983    H 1179 0.955
   883  O   2.046    C  882 1.908    C  881 0.056
   884  C   3.995    C  885 1.000    H  888 0.979    H  889 0.973    C  881 0.965
   885  C   3.997    C  886 1.010    C  884 1.000    H  891 0.977    H  890 0.973
   886  C   3.988    C  885 1.010    N  880 1.000    H  893 0.978    H  892 0.974
   887  H   0.996    C  881 0.955
   888  H   0.999    C  884 0.979
   889  H   0.998    C  884 0.973
   890  H   0.999    C  885 0.973
   891  H   1.000    C  885 0.977
   892  H   0.997    C  886 0.974
   893  H   0.999    C  886 0.978
   894  N   2.985    C  895 1.021    H  898 0.957    H 1180 0.955
   895  C   3.981    N  894 1.021    C  896 0.973    H  899 0.951    H  900 0.949    O  897 0.053
   896  C   3.939    O  897 1.607    N  901 1.279    C  895 0.973
   897  O   1.942    C  896 1.607    N  901 0.180    C  895 0.053
   898  H   0.966    N  894 0.957
   899  H   0.992    C  895 0.951
   900  H   0.993    C  895 0.949
   901  N   3.464    C  896 1.279    C  902 0.995    H  909 0.921    O  897 0.180
   902  C   3.969    N  901 0.995    C  905 0.969    H  910 0.946    C  903 0.932
   903  C   3.951    O  904 1.627    N  920 1.312    C  902 0.932
   904  O   1.941    C  903 1.627    N  920 0.201
   905  C   3.988    C  906 0.991    H  912 0.974    H  911 0.973    C  902 0.969
   906  C   3.995    C  907 1.009    C  908 1.008    C  905 0.991    H  913 0.969
   907  C   3.991    C  906 1.009    H  915 0.984    H  916 0.983    H  914 0.983
   908  C   3.995    C  906 1.008    H  919 0.984    H  918 0.981    H  917 0.978
   909  H   0.954    N  901 0.921
   910  H   0.994    C  902 0.946
   911  H   0.995    C  905 0.973
   912  H   0.998    C  905 0.974
   913  H   0.997    C  906 0.969
   914  H   0.997    C  907 0.983
   915  H   0.999    C  907 0.984
   916  H   0.997    C  907 0.983
   917  H   0.999    C  908 0.978
   918  H   0.999    C  908 0.981
   919  H   1.000    C  908 0.984
   920  N   3.477    C  903 1.312    C  921 0.978    H  927 0.899    O  904 0.201
   921  C   3.957    N  920 0.978    C  922 0.953    H  928 0.953    C  924 0.939
   922  C   3.949    O  923 1.617    N  934 1.298    C  921 0.953
   923  O   1.963    C  922 1.617    N  934 0.192
   924  C   3.957    C  926 1.011    O  925 0.989    H  929 0.962    C  921 0.939
   925  O   1.919    C  924 0.989    H  930 0.861
   926  C   3.987    C  924 1.011    H  932 0.974    H  931 0.974    H  933 0.973
   927  H   0.950    N  920 0.899
   928  H   0.991    C  921 0.953
   929  H   0.998    C  924 0.962
   930  H   0.876    O  925 0.861
   931  H   0.996    C  926 0.974
   932  H   0.996    C  926 0.974
   933  H   0.994    C  926 0.973
   934  N   3.475    C  922 1.298    C  935 0.973    H  940 0.921    O  923 0.192
   935  C   3.963    C  938 1.001    N  934 0.973    H  941 0.958    C  936 0.912    O  937 0.052
   936  C   3.954    O  937 1.658    N  944 1.302    C  935 0.912
   937  O   1.985    C  936 1.658    N  944 0.207    C  935 0.052
   938  C   3.971    C  935 1.001    H  942 0.970    S  939 0.966    H  943 0.959
   939  S   2.302    S  573 1.225    C  938 0.966
   940  H   0.947    N  934 0.921
   941  H   0.995    C  935 0.958
   942  H   0.994    C  938 0.970
   943  H   0.987    C  938 0.959
   944  N   3.484    C  936 1.302    C  945 0.976    H  952 0.918    O  937 0.207
   945  C   3.952    N  944 0.976    H  953 0.953    C  946 0.944    C  948 0.943
   946  C   3.956    O  947 1.612    N  963 1.291    C  945 0.944
   947  O   1.961    C  946 1.612    N  963 0.199
   948  C   3.987    C  950 1.006    C  949 1.000    H  954 0.968    C  945 0.943
   949  C   3.995    C  951 1.016    C  948 1.000    H  955 0.976    H  956 0.972
   950  C   3.986    C  948 1.006    H  957 0.979    H  959 0.978    H  958 0.973
   951  C   3.990    C  949 1.016    H  961 0.986    H  962 0.981    H  960 0.980
   952  H   0.956    N  944 0.918
   953  H   0.992    C  945 0.953
   954  H   0.997    C  948 0.968
   955  H   0.997    C  949 0.976
   956  H   0.999    C  949 0.972
   957  H   0.997    C  950 0.979
   958  H   0.996    C  950 0.973
   959  H   0.995    C  950 0.978
   960  H   0.996    C  951 0.980
   961  H   0.998    C  951 0.986
   962  H   0.997    C  951 0.981
   963  N   3.509    C  946 1.291    C  964 0.988    C  969 0.942    O  947 0.199
   964  C   3.967    N  963 0.988    C  965 0.981    C  967 0.946    H  970 0.939    O  966 0.062
   965  C   3.903    O  966 1.905    C  964 0.981    H 1181 0.951
   966  O   2.053    C  965 1.905    C  964 0.062
   967  C   3.977    C  968 0.996    H  971 0.977    H  972 0.974    C  964 0.946
   968  C   3.983    C  969 1.017    C  967 0.996    H  973 0.977    H  974 0.967
   969  C   3.949    C  968 1.017    H  976 0.961    H  975 0.958    N  963 0.942
   970  H   0.991    C  964 0.939
   971  H   0.993    C  967 0.977
   972  H   0.992    C  967 0.974
   973  H   0.993    C  968 0.977
   974  H   0.988    C  968 0.967
   975  H   0.994    C  969 0.958
   976  H   0.991    C  969 0.961
   977  N   2.983    C  978 1.031    H 1182 0.955    H  981 0.926
   978  C   3.990    N  977 1.031    C  979 0.971    H  983 0.959    H  982 0.935    O  980 0.052
   979  C   3.940    O  980 1.617    N  984 1.277    C  978 0.971
   980  O   1.969    C  979 1.617    N  984 0.183    C  978 0.052
   981  H   0.966    N  977 0.926
   982  H   0.992    C  978 0.935
   983  H   0.998    C  978 0.959
   984  N   3.447    C  979 1.277    C  985 0.988    H  991 0.899    O  980 0.183
   985  C   3.975    N  984 0.988    C  988 0.956    H  992 0.954    C  986 0.932    O  987 0.055
   986  C   3.943    O  987 1.665    N  998 1.263    C  985 0.932
   987  O   1.992    C  986 1.665    N  998 0.194    C  985 0.055
   988  C   3.969    O  989 1.007    C  990 0.997    H  993 0.957    C  985 0.956
   989  O   1.953    C  988 1.007    H  994 0.844
   990  C   3.993    C  988 0.997    H  996 0.983    H  995 0.981    H  997 0.976
   991  H   0.948    N  984 0.899
   992  H   0.995    C  985 0.954
   993  H   0.995    C  988 0.957
   994  H   0.886    O  989 0.844
   995  H   0.998    C  990 0.981
   996  H   0.999    C  990 0.983
   997  H   0.995    C  990 0.976
   998  N   3.453    C  986 1.263    C  999 0.989    H 1004 0.914    O  987 0.194
   999  C   3.971    C 1002 1.001    N  998 0.989    H 1005 0.951    C 1000 0.908    O 1001 0.051
  1000  C   3.951    O 1001 1.563    N 1009 1.385    C  999 0.908
  1001  O   1.924    C 1000 1.563    N 1009 0.201    C  999 0.051
  1002  C   3.975    C  999 1.001    H 1006 0.970    H 1007 0.969    S 1003 0.965
  1003  S   1.957    C 1002 0.965    H 1008 0.927
  1004  H   0.954    N  998 0.914
  1005  H   0.993    C  999 0.951
  1006  H   0.998    C 1002 0.970
  1007  H   0.998    C 1002 0.969
  1008  H   0.949    S 1003 0.927
  1009  N   3.526    C 1000 1.385    C 1010 0.970    H 1021 0.886    O 1001 0.201
  1010  C   3.957    N 1009 0.970    H 1022 0.959    C 1011 0.947    C 1013 0.946
  1011  C   3.951    O 1012 1.580    N 1030 1.340    C 1010 0.947
  1012  O   1.931    C 1011 1.580    N 1030 0.198
  1013  C   3.982    C 1014 1.018    H 1024 0.963    H 1023 0.963    C 1010 0.946
  1014  C   3.987    C 1016 1.410    C 1015 1.394    C 1013 1.018    C 1019 0.094
  1015  C   3.988    C 1017 1.463    C 1014 1.394    H 1025 0.968    C 1018 0.103
  1016  C   3.991    C 1018 1.451    C 1014 1.410    H 1026 0.967    C 1017 0.106
  1017  C   3.986    C 1015 1.463    C 1019 1.354    H 1027 0.963    C 1016 0.106
  1018  C   3.988    C 1016 1.451    C 1019 1.368    H 1028 0.963    C 1015 0.103    O 1020 0.063
  1019  C   3.933    C 1018 1.368    C 1017 1.354    O 1020 1.077    C 1014 0.094
  1020  O   2.129    C 1019 1.077    H 1029 0.877    C 1018 0.063
  1021  H   0.937    N 1009 0.886
  1022  H   0.995    C 1010 0.959
  1023  H   0.993    C 1013 0.963
  1024  H   0.992    C 1013 0.963
  1025  H   0.995    C 1015 0.968
  1026  H   0.998    C 1016 0.967
  1027  H   0.994    C 1017 0.963
  1028  H   0.999    C 1018 0.963
  1029  H   0.911    O 1020 0.877
  1030  N   3.500    C 1011 1.340    C 1031 0.972    H 1042 0.908    O 1012 0.198
  1031  C   3.957    N 1030 0.972    C 1034 0.961    H 1043 0.954    C 1032 0.923    O 1033 0.054
  1032  C   3.956    O 1033 1.661    N 1051 1.298    C 1031 0.923
  1033  O   1.994    C 1032 1.661    N 1051 0.205    C 1031 0.054
  1034  C   3.985    C 1035 1.007    H 1044 0.969    H 1045 0.963    C 1031 0.961
  1035  C   3.987    C 1036 1.450    C 1037 1.367    C 1034 1.007    C 1040 0.097
  1036  C   3.993    C 1035 1.450    C 1038 1.409    H 1046 0.966    C 1039 0.107
  1037  C   3.992    C 1039 1.499    C 1035 1.367    H 1047 0.970    C 1038 0.103
  1038  C   3.991    C 1040 1.419    C 1036 1.409    H 1048 0.968    C 1037 0.103    O 1041 0.052
  1039  C   3.986    C 1037 1.499    C 1040 1.328    H 1049 0.966    C 1036 0.107    O 1041 0.053
  1040  C   3.944    C 1038 1.419    C 1039 1.328    O 1041 1.062    C 1035 0.097
  1041  O   2.071    C 1040 1.062    H 1050 0.853    C 1039 0.053    C 1038 0.052
  1042  H   0.950    N 1030 0.908
  1043  H   0.996    C 1031 0.954
  1044  H   0.997    C 1034 0.969
  1045  H   0.995    C 1034 0.963
  1046  H   0.998    C 1036 0.966
  1047  H   0.999    C 1037 0.970
  1048  H   0.996    C 1038 0.968
  1049  H   0.994    C 1039 0.966
  1050  H   0.869    O 1041 0.853
  1051  N   3.463    C 1032 1.298    C 1052 0.971    H 1060 0.901    O 1033 0.205
  1052  C   3.959    N 1051 0.971    C 1055 0.967    C 1053 0.950    H 1061 0.935
  1053  C   3.918    O 1054 1.678    O 1059 1.234    C 1052 0.950
  1054  O   1.954    C 1053 1.678    O 1059 0.181
  1055  C   3.978    C 1056 0.977    H 1062 0.970    H 1063 0.969    C 1052 0.967
  1056  C   3.992    C 1057 1.017    C 1058 1.011    C 1055 0.977    H 1064 0.966
  1057  C   3.991    C 1056 1.017    H 1065 0.983    H 1066 0.981    H 1067 0.979
  1058  C   3.995    C 1056 1.011    H 1069 0.984    H 1070 0.980    H 1068 0.976
  1059  O   2.256    C 1053 1.234    H 1071 0.810    O 1054 0.181
  1060  H   0.949    N 1051 0.901
  1061  H   0.992    C 1052 0.935
  1062  H   0.996    C 1055 0.970
  1063  H   0.995    C 1055 0.969
  1064  H   0.999    C 1056 0.966
  1065  H   0.996    C 1057 0.983
  1066  H   0.997    C 1057 0.981
  1067  H   0.995    C 1057 0.979
  1068  H   0.999    C 1058 0.976
  1069  H   0.997    C 1058 0.984
  1070  H   0.998    C 1058 0.980
  1071  H   0.843    O 1059 0.810
  1072  N   2.985    C 1073 1.017    H 1157 0.951    H 1079 0.949
  1073  C   3.987    N 1072 1.017    C 1074 1.001    H 1080 0.958    C 1076 0.922    O 1075 0.055
  1074  C   3.908    O 1075 1.887    C 1073 1.001    H 1158 0.959
  1075  O   2.030    C 1074 1.887    C 1073 0.055
  1076  C   3.948    C 1078 1.011    O 1077 0.975    H 1081 0.959    C 1073 0.922
  1077  O   1.927    C 1076 0.975    H 1082 0.869
  1078  C   3.990    C 1076 1.011    H 1083 0.978    H 1084 0.978    H 1085 0.972
  1079  H   0.967    N 1072 0.949
  1080  H   0.996    C 1073 0.958
  1081  H   0.999    C 1076 0.959
  1082  H   0.904    O 1077 0.869
  1083  H   0.997    C 1078 0.978
  1084  H   0.996    C 1078 0.978
  1085  H   0.996    C 1078 0.972
  1086  N   3.000    C 1087 1.015    H 1094 0.952    H 1159 0.951
  1087  C   3.984    N 1086 1.015    C 1088 0.985    H 1095 0.969    C 1090 0.926    O 1089 0.056
  1088  C   3.903    O 1089 1.902    C 1087 0.985    H 1160 0.952
  1089  O   2.043    C 1088 1.902    C 1087 0.056
  1090  C   3.993    C 1092 1.007    C 1091 1.002    H 1096 0.969    C 1087 0.926
  1091  C   3.998    C 1093 1.014    C 1090 1.002    H 1097 0.977    H 1098 0.968
  1092  C   3.990    C 1090 1.007    H 1101 0.981    H 1099 0.978    H 1100 0.975
  1093  C   3.992    C 1091 1.014    H 1103 0.987    H 1104 0.982    H 1102 0.982
  1094  H   0.969    N 1086 0.952
  1095  H   0.998    C 1087 0.969
  1096  H   0.998    C 1090 0.969
  1097  H   0.999    C 1091 0.977
  1098  H   0.999    C 1091 0.968
  1099  H   0.999    C 1092 0.978
  1100  H   0.998    C 1092 0.975
  1101  H   0.996    C 1092 0.981
  1102  H   0.997    C 1093 0.982
  1103  H   0.997    C 1093 0.987
  1104  H   0.998    C 1093 0.982
  1105  N   3.048    C 1106 1.008    C 1111 0.989    H 1161 0.951
  1106  C   3.986    N 1105 1.008    C 1109 0.976    H 1112 0.956    C 1107 0.944
  1107  C   3.935    O 1108 1.599    N 1119 1.311    C 1106 0.944
  1108  O   1.903    C 1107 1.599    N 1119 0.187
  1109  C   3.994    C 1110 1.007    H 1113 0.977    C 1106 0.976    H 1114 0.974
  1110  C   3.995    C 1111 1.009    C 1109 1.007    H 1115 0.978    H 1116 0.972
  1111  C   3.984    C 1110 1.009    N 1105 0.989    H 1118 0.977    H 1117 0.968
  1112  H   0.995    C 1106 0.956
  1113  H   0.998    C 1109 0.977
  1114  H   0.995    C 1109 0.974
  1115  H   0.999    C 1110 0.978
  1116  H   0.998    C 1110 0.972
  1117  H   0.999    C 1111 0.968
  1118  H   0.996    C 1111 0.977
  1119  N   3.481    C 1107 1.311    C 1120 0.986    H 1127 0.900    O 1108 0.187
  1120  C   3.974    C 1121 0.992    N 1119 0.986    C 1123 0.953    H 1128 0.942    O 1122 0.055
  1121  C   3.917    O 1122 1.848    C 1120 0.992    H 1162 0.955
  1122  O   1.993    C 1121 1.848    C 1120 0.055
  1123  C   3.982    H 1129 0.959    H 1130 0.955    C 1120 0.953    C 1124 0.942
  1124  C   3.945    O 1125 1.512    O 1126 1.455    C 1123 0.942
  1125  O   1.852    C 1124 1.512    O 1126 0.221
  1126  O   1.781    C 1124 1.455    O 1125 0.221
  1127  H   0.954    N 1119 0.900
  1128  H   0.994    C 1120 0.942
  1129  H   0.998    C 1123 0.959
  1130  H   0.997    C 1123 0.955
  1131  N   2.979    C 1132 1.013    H 1183 0.952    H 1140 0.950
  1132  C   3.986    N 1131 1.013    C 1135 0.970    C 1133 0.957    H 1141 0.945
  1133  C   3.915    O 1134 1.665    O 1139 1.241    C 1132 0.957
  1134  O   1.936    C 1133 1.665    O 1139 0.180
  1135  C   3.991    C 1136 0.980    H 1142 0.973    H 1143 0.972    C 1132 0.970
  1136  C   3.996    C 1137 1.017    C 1138 1.011    C 1135 0.980    H 1144 0.966
  1137  C   3.995    C 1136 1.017    H 1145 0.982    H 1146 0.981    H 1147 0.981
  1138  C   3.995    C 1136 1.011    H 1149 0.986    H 1150 0.982    H 1148 0.980
  1139  O   2.251    C 1133 1.241    H 1151 0.800    O 1134 0.180
  1140  H   0.967    N 1131 0.950
  1141  H   0.996    C 1132 0.945
  1142  H   0.998    C 1135 0.973
  1143  H   0.998    C 1135 0.972
  1144  H   0.999    C 1136 0.966
  1145  H   0.999    C 1137 0.982
  1146  H   0.999    C 1137 0.981
  1147  H   0.998    C 1137 0.981
  1148  H   0.997    C 1138 0.980
  1149  H   0.998    C 1138 0.986
  1150  H   0.999    C 1138 0.982
  1151  H   0.831    O 1139 0.800
  1152  H   0.988    C  100 0.950
  1153  H   0.959    N  108 0.937
  1154  H   0.994    C  245 0.955
  1155  H   0.960    N  253 0.944
  1156  H   0.992    C  300 0.950
  1157  H   0.964    N 1072 0.951
  1158  H   0.997    C 1074 0.959
  1159  H   0.974    N 1086 0.951
  1160  H   0.994    C 1088 0.952
  1161  H   0.964    N 1105 0.951
  1162  H   0.993    C 1121 0.955
  1163  H   0.967    N  460 0.952
  1164  H   0.996    C  462 0.953
  1165  H   0.969    N  480 0.954
  1166  H   0.990    C  492 0.949
  1167  H   0.967    N  500 0.952
  1168  H   0.989    C  570 0.950
  1169  H   0.966    N  578 0.951
  1170  H   0.995    C  580 0.958
  1171  H   0.968    N  592 0.954
  1172  H   0.995    C  594 0.953
  1173  H   0.973    N  612 0.962
  1174  H   0.990    C  614 0.949
  1175  H   0.970    N  628 0.958
  1176  H   0.988    C  788 0.949
  1177  H   0.960    N  793 0.944
  1178  H   0.967    N  880 0.954
  1179  H   0.995    C  882 0.955
  1180  H   0.972    N  894 0.955
  1181  H   0.995    C  965 0.951
  1182  H   0.967    N  977 0.955
  1183  H   0.969    N 1131 0.952
 
molecular dipole:
                 x           y           z       tot (Debye)
 q only:      -16.480     -41.041     -50.797
   full:      -18.920     -36.680     -55.978     176.777
molecular quadrupole (traceless):
                xx          xy          yy          xz          yz          zz
 q only:      784.556   -1433.788    -931.453     423.056    -239.694     146.896
  q+dip:      667.403   -1333.813    -516.336     156.852    -165.942    -151.067
   full:      677.479   -1335.061    -529.662     164.234    -166.262    -147.817
speedup 11.27
cpu  time for grad    6 m 37.9 s
wall time for grad    0 m 35.3 s

SCC energy    :   -1898.4736034
rep           :      24.2838731
ES            :       6.1537975
AES           :      -0.3048717
AXC           :       0.4307651
disp          :      -1.7917749
XB            :       0.0000000
fix           :       0.0000000
Gborn         :       0.0000000
Gsasa         :       0.0000000
Ghb           :       0.0000000
Gshift        :       0.0000000
Gsolv         :      -1.3734672     -861.86
Etot ala COSMO:   -1898.4736034
grad norm     :       1.5642857
total E       :   -1873.9443447
atomizationE  :     325.5974846   204315.51
(atE without considering molecular charge,
 total energy contains solvation terms)
H-L gap (eV)  :          0.3496

------------------------------------------------------------------------
 * finished run on 2019/02/22 at 14:31:00.904     
------------------------------------------------------------------------
 total:
 * wall-time:     0 d,  0 h,  0 min, 38.624 sec
 *  cpu-time:     0 d,  0 h,  6 min, 53.400 sec
 * ratio c/w:    10.703 speedup
 SCF:
 * wall-time:     0 d,  0 h,  0 min, 36.993 sec
 *  cpu-time:     0 d,  0 h,  6 min, 47.797 sec
 * ratio c/w:    11.024 speedup

